 PROCESS            0  OF            8  WORKING
 PROCESS            3  OF            8  WORKING
 PROCESS            7  OF            8  WORKING
 PROCESS            4  OF            8  WORKING
 PROCESS            1  OF            8  WORKING
 PROCESS            2  OF            8  WORKING
 PROCESS            6  OF            8  WORKING
 PROCESS            5  OF            8  WORKING

         
 *******************************************************************************
 *                                                                             *
 *                               CRYSTAL23                                     *
 *                      public : 1.0.1 - October 2022                          *
 *                       HTTP://WWW.CRYSTAL.UNITO.IT                           *
 *                                                                             *
 *                              MAIN AUTHORS                                   *
 *                                                                             *
 *  R. DOVESI(1,11), V.R. SAUNDERS(2), C. ROETTI(1,11), R. ORLANDO(1,11),      *
 *  C.M. ZICOVICH-WILSON(1,3), F. PASCALE(4), B. CIVALLERI(1,11),              *
 *  K. DOLL(5), N.M. HARRISON(6), I.J. BUSH(7), Ph. D'ARCO(8),                 *
 *  M. LLUNELL(9), M. CAUSA'(10), Y. NOEL(8), L. MASCHIO(1,11), A. ERBA(1,11)  *
 *  M. RE'RAT(14), S. CASASSA(1,11), B.G. SEARLE(2), J.K. DESMARAIS(1)         *
 *                                                                             *
 *        CONTRIBUTIONS TO THE CODE HAVE ALSO BEEN GIVEN BY                    *
 *                                                                             *
 *  M. FERRABONE(1,11), M. DE LA PIERRE(1,11), M. FERRERO(1,11),               *
 *  J. BAIMA(1,11), E. ALBANESE(1,11), M.F. PEINTINGER(12), R. BAST(13),       *
 *  B. KIRTMAN(15), V. LACIVITA(1,11), R. DEMICHELIS(1,16)                     *
 *  G. BRANDEBURG(17), S. SALUSTRO(1,11), G. SANSONE(1,11)                     *
 *  M.T. RUGGIERO(18), L.E. DAGA(1), L. DONA'(1), A. COSSARD(1)                *
 *                                                                             *
 * (1) THEORETICAL CHEMISTRY GROUP - UNIVERSITA' DI TORINO - TORINO (ITALY)    *
 * (2) SCIENTIFIC COMPUTING DEPARTMENT - STFC DARESBURY (UK)                   *
 * (3) UNIVERSIDAD AUTONOMA DEL ESTADO DE MORELOS - CUERNAVACA (MEXICO)        *
 * (4) UNIVERSITE' DE LORRAINE - NANCY (FRANCE)                                *
 * (5) UNIVERSITAET STUTTGART- STUTTGART (GERMANY)                             *
 * (6) IMPERIAL COLLEGE - LONDON (UK)                                          *
 * (7) SCIENTIFIC COMPUTING DEPARTMENT - STFC RAL (UK)                         *
 * (8) UPMC - SORBONNE UNIVERSITES - PARIS (FRANCE)                            *
 * (9) UNIVERSIDAD DE BARCELONA - BARCELONA (SPAIN)                            *
 *(10) UNIVERSITA' DI NAPOLI "FEDERICO II" - NAPOLI (ITALY)                    *
 *(11) NIS - NANOSTRUCTURED INTERFACES AND SURFACES - TORINO (ITALY)           *
 *(12) MPI FUER CHEMISCHE ENERGIEKONVERSION - MUELHEIM AN DER RUHR (GERMANY)   *
 *(13) UNIVERSITY OF TROMSO - TROMSO (NORWAY)                                  *
 *(14) UNIVERSITE' DE PAU ET DES PAYS DE L'ADOUR - PAU (FRANCE)                *
 *(15) UNIVERSITY OF CALIFORNIA SANTA BARBARA - SANTA BARBARA (USA)            *
 *(16) CURTIN UNIVERSITY - PERTH (AUSTRALIA)                                   *
 *(17) UNIVERSITY COLLEGE LONDON - LONDON (UK)                                 *
 *(18) UNIVERSITY OF VERMONT - BURLINGTON (USA)                                *
 *                                                                             *
 *******************************************************************************
 EEEEEEEEEE STARTING  DATE 24 07 2025 TIME 09:36:02.8
 INFORMATION **** SET_MPP **** PCRYSTAL CALCULATION

 *******************************************************************************
 NOTT-401 MOF                                                                    
 CRYSTAL - PROPERTIES - TYPE OF CALCULATION :  RESTRICTED CLOSED SHELL
 *******************************************************************************
 KOHN-SHAM HAMILTONIAN

 (EXCHANGE)[CORRELATION] FUNCTIONAL:(BECKE 88)[LEE-YANG-PARR]

 NON-LOCAL WEIGHTING FACTOR (EXCHANGE) =           0.9000
 NON-LOCAL WEIGHTING FACTOR [CORRELATION] =        0.8100

 HYBRID EXCHANGE - PERCENTAGE OF FOCK EXCHANGE    20.0000

 DIRECT LATTICE VECTOR COMPONENTS (ANGSTROM)
       -11.99123   12.00016    6.26007
        11.97607  -11.96913    6.18462
        10.72780   10.70521   -6.20644

 LATTICE PARAMETERS  (ANGSTROM AND DEGREES) - PRIMITIVE CELL
       A          B          C         ALPHA      BETA     GAMMA        VOLUME
   18.08264   18.02598   16.37703     97.4035   97.5730  139.6798    3197.65973
 *******************************************************************************
 N. OF ATOMS PER CELL       131 COULOMB OVERLAP TOL          (T1) 10**   -7
 NUMBER OF SHELLS           994 COULOMB PENETRATION TOL      (T2) 10**   -7
 NUMBER OF AO              2210 EXCHANGE OVERLAP TOL         (T3) 10**   -7
 N. OF ELECTRONS PER CELL   960 EXCHANGE PSEUDO OVP (F(G))   (T4) 10**   -9
 CORE ELECTRONS PER CELL    414 EXCHANGE PSEUDO OVP (P(G))   (T5) 10**  -30
 N. OF SYMMETRY OPERATORS     1 POLE ORDER IN MONO ZONE                   4
 *******************************************************************************
   ATOM N.AT.  SHELL    X(A)      Y(A)      Z(A)      EXAD       N.ELECT.
 *******************************************************************************
    1   21 SC   11    -5.669     1.659    -2.937   3.450E-01      19.446
    2   21 SC   11    -5.691    -1.016     3.276   3.450E-01      19.449
    3   21 SC   11    -7.046     0.088    -5.960   3.450E-01      19.447
    4   21 SC   11    -4.279     0.551     0.277   3.450E-01      19.446
    5   21 SC   11     5.651    -1.662     2.999   3.450E-01      19.434
    6   21 SC   11     5.653     1.010    -3.264   3.450E-01      19.432
    7   21 SC   11     7.062    -0.051     5.961   3.450E-01      19.445
    8   21 SC   11     4.292    -0.520    -0.210   3.450E-01      19.447
    9   16 S    10     0.001     0.415    -1.812   5.207E-01      16.050
   10   16 S    10    -0.615    10.857    -1.760   5.207E-01      16.045
   11   16 S    10     0.025    -0.324     1.914   5.207E-01      16.045
   12   16 S    10     0.609   -10.826     1.770   5.207E-01      16.044
   13   16 S    10     4.807     5.281    -1.312   5.207E-01      16.045
   14   16 S    10    -5.545     6.102    -1.260   5.207E-01      16.044
   15   16 S    10    -4.936    -5.277     1.308   5.207E-01      16.042
   16   16 S    10     5.479    -6.077     1.326   5.207E-01      16.045
   17    8 O     8    -5.687     0.419    -1.261   2.535E-01       8.603
   18    8 O     8    -5.656     0.234     4.947   2.535E-01       8.604
   19    8 O     8    -5.681     0.476     1.818   2.535E-01       8.624
   20    8 O     8    -5.677     0.165    -4.392   2.535E-01       8.619
   21    8 O     8     5.716    -0.424     1.324   2.535E-01       8.624
   22    8 O     8     5.727    -0.306    -4.890   2.535E-01       8.676
   23    8 O     8     5.697    -0.440    -1.764   2.535E-01       8.636
   24    8 O     8     5.701    -0.106     4.383   2.535E-01       8.669
   25    1 H     4    -6.201    -0.394    -1.319   8.000E-01       0.819
   26    1 H     4    -5.153     1.052     4.874   8.000E-01       0.818
   27    1 H     4    -6.536     0.892     1.657   8.000E-01       0.813
   28    1 H     4    -4.842    -0.299    -4.516   8.000E-01       0.814
   29    1 H     4     6.137     0.436     1.432   8.000E-01       0.813
   30    1 H     4     5.577    -1.236    -4.679   8.000E-01       0.803
   31    1 H     4     6.572    -0.790    -1.560   8.000E-01       0.810
   32    1 H     4     5.030     0.589     4.360   8.000E-01       0.796
   33    8 O     8    -3.528     1.516    -3.163   2.535E-01       8.643
   34    8 O     8    -7.830    -0.873     3.022   2.535E-01       8.644
   35    8 O     8    -3.556    -1.004     3.382   2.535E-01       8.618
   36    8 O     8    -7.815     1.606    -2.811   2.535E-01       8.621
   37    8 O     8    -6.871    -2.049    -5.830   2.535E-01       8.639
   38    8 O     8    -4.436     2.685     0.350   2.535E-01       8.632
   39    8 O     8    -4.226    -1.606     0.093   2.535E-01       8.627
   40    8 O     8    -7.088     2.242    -6.187   2.535E-01       8.628
   41    8 O     8     3.503    -1.562     3.251   2.535E-01       8.666
   42    8 O     8     7.814     0.936    -3.035   2.535E-01       8.645
   43    8 O     8     3.526     0.858    -3.501   2.535E-01       8.642
   44    8 O     8     7.795    -1.718     2.919   2.535E-01       8.620
   45    8 O     8     6.803     2.065     5.830   2.535E-01       8.639
   46    8 O     8     4.430    -2.653    -0.307   2.535E-01       8.635
   47    8 O     8     4.304     1.623     0.039   2.535E-01       8.629
   48    8 O     8     7.097    -2.215     6.221   2.535E-01       8.633
   49    8 O     8    -5.360     3.240    -1.612   2.535E-01       8.602
   50    8 O     8    -6.045    -2.565     4.614   2.535E-01       8.597
   51    8 O     8    -5.439    -2.464     1.774   2.535E-01       8.622
   52    8 O     8    -5.955     3.086    -4.446   2.535E-01       8.617
   53    8 O     8    -8.535    -0.192     5.038   2.535E-01       8.599
   54    8 O     8    -2.795     0.798    -1.172   2.535E-01       8.600
   55    8 O     8    -2.802     0.314     1.737   2.535E-01       8.623
   56    8 O     8    -8.556     0.394    -4.542   2.535E-01       8.618
   57    8 O     8     5.333    -3.219     1.660   2.535E-01       8.598
   58    8 O     8     5.906     2.543    -4.639   2.535E-01       8.596
   59    8 O     8     5.272     2.461    -1.802   2.535E-01       8.613
   60    8 O     8     5.833    -3.041     4.569   2.535E-01       8.622
   61    8 O     8     8.551     0.292    -5.054   2.535E-01       8.597
   62    8 O     8     2.829    -0.772     1.265   2.535E-01       8.594
   63    8 O     8     2.834    -0.205    -1.660   2.535E-01       8.604
   64    8 O     8     8.563    -0.402     4.564   2.535E-01       8.614
   65    6 C     8    -2.603     1.151    -2.376   8.792E-01       5.421
   66    6 C     8    -8.744    -0.544     3.837   8.792E-01       5.420
   67    6 C     8    -2.617    -0.495     2.701   8.792E-01       5.424
   68    6 C     8    -8.747     1.143    -3.532   8.792E-01       5.426
   69    6 C     8    -6.489    -2.869     5.765   8.792E-01       5.422
   70    6 C     8    -4.871     3.538    -0.479   8.792E-01       5.421
   71    6 C     8    -4.716    -2.583     0.735   8.792E-01       5.423
   72    6 C     8    -6.647     3.214    -5.505   8.792E-01       5.424
   73    6 C     8     2.599    -1.175     2.445   8.792E-01       5.423
   74    6 C     8     8.740     0.607    -3.838   8.792E-01       5.421
   75    6 C     8     2.608     0.464    -2.719   8.792E-01       5.431
   76    6 C     8     8.738    -1.203     3.589   8.792E-01       5.423
   77    6 C     8     6.392     2.874    -5.766   8.792E-01       5.419
   78    6 C     8     4.854    -3.513     0.520   8.792E-01       5.424
   79    6 C     8     4.676     2.593    -0.686   8.792E-01       5.423
   80    6 C     8     6.600    -3.185     5.573   8.792E-01       5.424
   81    6 C     8    -1.220     1.118    -2.852   8.792E-01       5.939
   82    6 C     8   -10.137    -0.552     3.393   8.792E-01       5.939
   83    6 C     8    -1.236    -0.866     2.999   8.792E-01       5.941
   84    6 C     8   -10.135     1.489    -3.221   8.792E-01       5.939
   85    6 C     8     4.204     6.411    -0.118   8.792E-01       5.943
   86    6 C     8    -4.826     4.961    -0.143   8.792E-01       5.941
   87    6 C     8    -4.441    -3.948     0.283   8.792E-01       5.938
   88    6 C     8     5.031    -7.387     0.257   8.792E-01       5.939
   89    6 C     8     1.204    -1.184     2.879   8.792E-01       5.939
   90    6 C     8    10.127     0.565    -3.372   8.792E-01       5.942
   91    6 C     8     1.220     0.800    -3.010   8.792E-01       5.940
   92    6 C     8    10.121    -1.541     3.268   8.792E-01       5.938
   93    6 C     8    -4.274    -6.404     0.143   8.792E-01       5.944
   94    6 C     8     4.810    -4.933     0.181   8.792E-01       5.944
   95    6 C     8     4.410     3.958    -0.238   8.792E-01       5.942
   96    6 C     8    -5.059     7.415    -0.209   8.792E-01       5.942
   97    6 C     8    -0.697     1.598    -4.020   8.792E-01       5.984
   98    6 C     8     0.049     9.640    -3.957   8.792E-01       5.984
   99    6 C     8    -0.755    -1.657     4.004   8.792E-01       5.976
  100    6 C     8     1.328    -9.877     4.077   8.792E-01       5.983
  101    6 C     8     3.741     5.786     1.005   8.792E-01       5.982
  102    6 C     8    -4.267     5.576     0.941   8.792E-01       5.982
  103    6 C     8    -3.814    -4.373    -0.854   8.792E-01       5.983
  104    6 C     8     4.413    -6.945    -0.879   8.792E-01       5.983
  105    6 C     8     0.635    -1.842     3.934   8.792E-01       5.967
  106    6 C     8    -0.064    -9.695     4.009   8.792E-01       5.984
  107    6 C     8     0.696     1.436    -4.102   8.792E-01       5.954
  108    6 C     8    -1.348     9.785    -4.011   8.792E-01       5.983
  109    6 C     8    -3.725    -5.772    -0.937   8.792E-01       5.981
  110    6 C     8     4.292    -5.546    -0.925   8.792E-01       5.982
  111    6 C     8     3.854     4.387     0.935   8.792E-01       5.983
  112    6 C     8    -4.392     6.975     0.899   8.792E-01       5.982
  113    1 H     4    -1.305     2.071    -4.777   8.000E-01       0.949
  114    1 H     4   -10.080    -1.543     1.487   8.000E-01       0.949
  115    1 H     4    -1.395    -2.097     4.755   8.000E-01       0.947
  116    1 H     4   -10.029     2.388    -1.273   8.000E-01       0.951
  117    1 H     4     3.327     6.328     1.842   8.000E-01       0.949
  118    1 H     4    -3.775     5.025     1.729   8.000E-01       0.947
  119    1 H     4    -3.434    -3.687    -1.597   8.000E-01       0.949
  120    1 H     4     4.060    -7.619    -1.646   8.000E-01       0.950
  121    1 H     4     1.200    -2.466     4.609   8.000E-01       0.942
  122    1 H     4    10.066     1.468    -1.422   8.000E-01       0.952
  123    1 H     4     1.302     1.766    -4.933   8.000E-01       0.934
  124    1 H     4    -1.973     9.436    -4.820   8.000E-01       0.951
  125    1 H     4    -3.265    -6.312    -1.753   8.000E-01       0.950
  126    1 H     4     3.834    -4.994    -1.733   8.000E-01       0.949
  127    1 H     4     3.539     3.705     1.711   8.000E-01       0.945
  128    1 H     4    -4.010     7.648     1.652   8.000E-01       0.952
  129   16 S    10     3.086    -0.375     6.064   5.207E-01      15.446
  130    8 O     8     1.809    -0.907    -5.785   2.535E-01       8.273
  131    8 O     8     3.017     0.986     5.403   2.535E-01       8.300
 *******************************************************************************
 DE(K)                   0.000E+00  ENERGY LEVEL SHIFTING        0.00000
 TOTAL ENERGY -1.4671483337447E+04  CONVERGENCE ON ENER       -6.106E-09
 KIN. ENERGY   1.4642379135403E+04  VIR. COEFF.           1.03232942E+00
 N. OF SCF CYCLES               20  FERMI ENERGY              -0.237E+00
 WEIGHT OF F(I) IN F(I+1)      80
 SHRINK. FACT.(MONKH.)     2  2  2  SHRINKING FACTOR(GILAT NET)        2
 NUMBER OF K POINTS IN THE IBZ   8  CELL VOLUME (A.U.)      21665.356235
 *******************************************************************************

 GCALCO - MAX INDICES DIRECT LATTICE VECTOR    16    16    12
 NO.OF VECTORS CREATED 6999 STARS 3500 RMAX   330.58371 BOHR
 TTTTTTTTTTTTTTTTTTTTTTTTTTTTTT gordsh1     TELAPSE        0.32 TCPU        0.12

 MATRIX SIZE: P(G) 6108366, F(G)  572376, P(G) IRR 3058864, F(G) IRR  574756
 MAX G-VECTOR INDEX FOR 1- AND 2-ELECTRON INTEGRALS  73


 CAPPA:IS1  2;IS2  2;IS3  2; K PTS MONK NET   8; SYMMOPS:K SPACE   2;G SPACE   1

 *******************************************************************************
 *                                                                             *
 *                              T O P O N D  2 0 2 1                                                                *
 *                                                                             *
 *           AN ELECTRON DENSITY TOPOLOGICAL ANALYSIS PROGRAM FOR              *
 *                 SYSTEMS PERIODIC IN N (N=0-3) DIMENSIONS                    *
 *                                                                             *
 *               USER MANUAL BY CARLO GATTI AND SILVIA CASASSA                 *
 *                                                                             *
 *            CNR-ISTM, ISTITUTO DI SCIENZE E TECNOLOGIE MOLECOLARI            *
 *                   VIA GOLGI 19  - I-20133 MILANO - ITALIA                   *
 *                     E-MAIL: c.gatti@istm.cnr.it                             *
 *                                                                             *
 *******************************************************************************

  TOPOND PARAMETER 

  LIM016 [INF24]        =       1000
  LIM015 [INF20]        =        994
  LIM035 [LIM016*INF5]  =    3500000
  NTOMAX [LIM016*INF5]  =    3500000
  INF79  [INF79]        =       6999
  MAXGSTAR [INF2*INF5]  =        384

 *******************************************************************************
 *******************************************************************************
 *                                                                             *
 *               TOPOND GENERALISATION TO F AND G ATOMIC ORBITALS              *
 *                                                                             *
 *                     BY ALESSANDRO COSSARD, JACQUES DESMARAIS                *
 *                            AND ALESSANDRO ERBA                              *
 *                                                                             *
 *      PLEASE CITE: A. Cossard, J. K. Desmarais, S.Casassa, C. Gatti and      *
 *            A. Erba, J. Phys. Chem. Lett., 12, 1862-1868 (2021)              *
 *                                                                             *
 *******************************************************************************

CRYSTAL INFORMATION ON THE REFERENCE SYSTEM:

 DIRECT LATTICE VECTOR COMPONENTS (BOHR)
       -22.66015   22.67702   11.82981
        22.63149  -22.61838   11.68724
        20.27260   20.22992  -11.72848

 LATTICE PARAMETERS  (BOHR AND DEGREES) - PRIMITIVE CELL
        A           B           C        ALPHA        BETA       GAMMA       VOLUME
    34.17125    34.06416    30.94810    97.40347    97.57299   139.67985 21578.87776
 *******************************************************************************
 N. OF ATOMS PER CELL      131  COULOMB OVERLAP TOL         (T1) 10** -7
 NUMBER OF SHELLS          994  COULOMB PENETRATION TOL     (T2) 10** -7
 NUMBER OF AO             2210  EXCHANGE OVERLAP TOL        (T3) 10** -7
 N. OF ELECTRONS PER CELL   960 EXCHANGE PSEUDO OVP (F(G))  (T4) 10** -9
 CORE ELECTRONS PER CELL   414  EXCHANGE PSEUDO OVP (P(G))  (T5) 10**-30
 N. OF SYMMETRY OPERATORS    1  POLE ORDER IN MONO ZONE                4
 *******************************************************************************
  ATOM  SHEL    X(AU)     Y(AU)     Z(AU)
 *******************************************************************************
   21 SC  11   -10.713     3.135    -5.550
   21 SC  11   -10.754    -1.919     6.190
   21 SC  11   -13.315     0.166   -11.262
   21 SC  11    -8.086     1.040     0.524
   21 SC  11    10.679    -3.141     5.667
   21 SC  11    10.682     1.909    -6.168
   21 SC  11    13.345    -0.097    11.265
   21 SC  11     8.110    -0.983    -0.397
   16 S   10     0.001     0.783    -3.425
   16 S   10    -1.162    20.517    -3.326
   16 S   10     0.047    -0.611     3.616
   16 S   10     1.150   -20.459     3.344
   16 S   10     9.084     9.980    -2.479
   16 S   10   -10.478    11.532    -2.380
   16 S   10    -9.328    -9.972     2.471
   16 S   10    10.353   -11.483     2.505
    8 O    8   -10.746     0.791    -2.383
    8 O    8   -10.688     0.442     9.348
    8 O    8   -10.735     0.900     3.435
    8 O    8   -10.728     0.313    -8.299
    8 O    8    10.801    -0.802     2.502
    8 O    8    10.823    -0.579    -9.240
    8 O    8    10.765    -0.831    -3.333
    8 O    8    10.774    -0.200     8.282
    1 H    4   -11.718    -0.744    -2.493
    1 H    4    -9.738     1.989     9.210
    1 H    4   -12.350     1.685     3.131
    1 H    4    -9.150    -0.566    -8.533
    1 H    4    11.597     0.823     2.705
    1 H    4    10.539    -2.336    -8.842
    1 H    4    12.419    -1.493    -2.949
    1 H    4     9.504     1.113     8.239
    8 O    8    -6.667     2.866    -5.978
    8 O    8   -14.797    -1.649     5.712
    8 O    8    -6.720    -1.896     6.391
    8 O    8   -14.768     3.034    -5.312
    8 O    8   -12.984    -3.872   -11.017
    8 O    8    -8.383     5.075     0.662
    8 O    8    -7.986    -3.036     0.176
    8 O    8   -13.394     4.237   -11.691
    8 O    8     6.620    -2.951     6.143
    8 O    8    14.766     1.768    -5.736
    8 O    8     6.664     1.622    -6.616
    8 O    8    14.731    -3.246     5.516
    8 O    8    12.856     3.902    11.016
    8 O    8     8.372    -5.013    -0.581
    8 O    8     8.132     3.067     0.073
    8 O    8    13.411    -4.186    11.756
    8 O    8   -10.128     6.122    -3.047
    8 O    8   -11.423    -4.848     8.719
    8 O    8   -10.277    -4.656     3.351
    8 O    8   -11.252     5.832    -8.402
    8 O    8   -16.129    -0.363     9.521
    8 O    8    -5.282     1.508    -2.214
    8 O    8    -5.296     0.594     3.283
    8 O    8   -16.168     0.745    -8.584
    8 O    8    10.078    -6.083     3.138
    8 O    8    11.161     4.806    -8.767
    8 O    8     9.962     4.650    -3.405
    8 O    8    11.023    -5.748     8.634
    8 O    8    16.159     0.552    -9.551
    8 O    8     5.346    -1.459     2.390
    8 O    8     5.355    -0.388    -3.136
    8 O    8    16.182    -0.760     8.624
    6 C    8    -4.919     2.175    -4.490
    6 C    8   -16.524    -1.029     7.250
    6 C    8    -4.945    -0.936     5.104
    6 C    8   -16.529     2.159    -6.675
    6 C    8   -12.262    -5.422    10.894
    6 C    8    -9.204     6.686    -0.905
    6 C    8    -8.911    -4.881     1.389
    6 C    8   -12.560     6.073   -10.402
    6 C    8     4.911    -2.220     4.620
    6 C    8    16.515     1.148    -7.253
    6 C    8     4.928     0.876    -5.138
    6 C    8    16.512    -2.274     6.783
    6 C    8    12.079     5.431   -10.895
    6 C    8     9.173    -6.639     0.983
    6 C    8     8.836     4.900    -1.296
    6 C    8    12.472    -6.019    10.532
    6 C    8    -2.305     2.113    -5.390
    6 C    8   -19.157    -1.044     6.413
    6 C    8    -2.336    -1.637     5.668
    6 C    8   -19.153     2.813    -6.087
    6 C    8     7.944    12.115    -0.224
    6 C    8    -9.120     9.376    -0.271
    6 C    8    -8.392    -7.461     0.535
    6 C    8     9.508   -13.959     0.485
    6 C    8     2.276    -2.237     5.440
    6 C    8    19.137     1.068    -6.372
    6 C    8     2.305     1.512    -5.688
    6 C    8    19.126    -2.913     6.175
    6 C    8    -8.076   -12.102     0.271
    6 C    8     9.089    -9.322     0.343
    6 C    8     8.334     7.480    -0.450
    6 C    8    -9.561    14.013    -0.395
    6 C    8    -1.317     3.019    -7.596
    6 C    8     0.092    18.217    -7.478
    6 C    8    -1.428    -3.131     7.567
    6 C    8     2.510   -18.665     7.704
    6 C    8     7.069    10.933     1.898
    6 C    8    -8.064    10.537     1.779
    6 C    8    -7.208    -8.263    -1.614
    6 C    8     8.339   -13.124    -1.661
    6 C    8     1.200    -3.482     7.433
    6 C    8    -0.120   -18.320     7.576
    6 C    8     1.315     2.714    -7.753
    6 C    8    -2.547    18.491    -7.579
    6 C    8    -7.039   -10.908    -1.771
    6 C    8     8.111   -10.480    -1.747
    6 C    8     7.283     8.290     1.766
    6 C    8    -8.300    13.180     1.700
    1 H    4    -2.466     3.913    -9.027
    1 H    4   -19.049    -2.916     2.811
    1 H    4    -2.636    -3.962     8.986
    1 H    4   -18.953     4.513    -2.405
    1 H    4     6.288    11.958     3.482
    1 H    4    -7.133     9.496     3.268
    1 H    4    -6.489    -6.967    -3.018
    1 H    4     7.673   -14.397    -3.111
    1 H    4     2.267    -4.660     8.710
    1 H    4    19.022     2.774    -2.688
    1 H    4     2.460     3.336    -9.321
    1 H    4    -3.728    17.832    -9.109
    1 H    4    -6.171   -11.927    -3.312
    1 H    4     7.245    -9.437    -3.274
    1 H    4     6.688     7.001     3.233
    1 H    4    -7.577    14.453     3.122
   16 S   10     5.831    -0.708    11.459
    8 O    8     3.418    -1.713   -10.931
    8 O    8     5.701     1.863    10.210
 *******************************************************************************
 DE(K)                  0.000E+00  CONVERGENCE ON EIGENVALUES   10**-20
 WEIGHT OF F(I) IN F(I+1)     80%  CONVERGENCE ON ENERGY        10**- 7
 TOTAL ENERGY     -1.46714833E+04  FERMI ENERGY              -2.372E-01
 KIN. ENERGY       1.46423791E+04  VIR. COEFF.           1.03232942E+00
 SHRINK. FACT.(MONKH.)    2  2  2  STARS FOR FOURIER EXP. OF E(K)     1
 SHRINKING FACTOR (GILAT NET)   2  NUMBER OF K POINTS IN THE IBZ      8
 CELL VOLUME (A.U.)       21665.356N. OF SCF CYCLES                  20
 ENERGY LEVEL SHIFTING    0.00000
 *******************************************************************************

 CLUSTER OF ATOMS AROUND THE SEED POINT OR NUCLEUS 
 NEW  OLD   CELL  AT. NU.         COORD.(AU)             DISTANCE (ANG)
     1     129       0     0     0   16        5.831  -0.708  11.459          0.000
     2     130       1     1     0    8        3.389  -1.655  12.586          1.509
     3     131       0     0     0    8        5.701   1.863  10.210          1.514
     4      32       0     0     0    1        9.504   1.113   8.239          2.759
     5      22       1     1     0    8       10.794  -0.521  14.277          3.022
     6      41       0     0     0    8        6.620  -2.951   6.143          3.082
     7      30       1     1     0    1       10.510  -2.278  14.675          3.117
     8      24       0     0     0    8       10.774  -0.200   8.282          3.121
     9     123       1     1     0    1        2.432   3.395  14.196          3.170
    10     121       0     0     0    1        2.267  -4.660   8.710          3.170

 UNIQUE ATOMS AROUND THE SEED POINT OR NUCLEUS
  NEW  OLD  CELL           COORD.(AU)             DISTANCE (ANG)
     1 S   129      0     0     0     5.831  -0.708  11.459          0.000
     2 O   130      1     1     0     3.389  -1.655  12.586          1.509
     3 O   131      0     0     0     5.701   1.863  10.210          1.514
     4 H    32      0     0     0     9.504   1.113   8.239          2.759
     5 O    22      1     1     0    10.794  -0.521  14.277          3.022
     6 O    41      0     0     0     6.620  -2.951   6.143          3.082
     7 H    30      1     1     0    10.510  -2.278  14.675          3.117
     8 O    24      0     0     0    10.774  -0.200   8.282          3.121
     9 H   123      1     1     0     2.432   3.395  14.196          3.170
    10 H   121      0     0     0     2.267  -4.660   8.710          3.170

 ATOM PAIRS CONSIDERED AROUND THE SEED POINT OR NUCLEUS
   PAIR      ATOM I           ATOM J      DISTANCE (ANG)
        1    S    129     0     0     0      O    130     1     1     0        1.509
        2    S    129     0     0     0      O    131     0     0     0        1.514
        3    S    129     0     0     0      H     32     0     0     0        2.759
        4    S    129     0     0     0      O     22     1     1     0        3.022
        5    S    129     0     0     0      O     41     0     0     0        3.082
        6    S    129     0     0     0      H     30     1     1     0        3.117
        7    S    129     0     0     0      O     24     0     0     0        3.121
        8    S    129     0     0     0      H    123     1     1     0        3.170
        9    S    129     0     0     0      H    121     0     0     0        3.170
       10    O    130     1     1     0      O    131     0     0     0        2.558
       11    O    130     1     1     0      H     32     0     0     0        4.232
       12    O    130     1     1     0      O     22     1     1     0        4.064
       13    O    130     1     1     0      O     41     0     0     0        3.875
       14    O    130     1     1     0      H     30     1     1     0        3.941
       15    O    130     1     1     0      O     24     0     0     0        4.588
       16    O    130     1     1     0      H    123     1     1     0        2.850
       17    O    130     1     1     0      H    121     0     0     0        2.662
       18    O    131     0     0     0      H     32     0     0     0        2.302
       19    O    131     0     0     0      O     22     1     1     0        3.673
       20    O    131     0     0     0      O     41     0     0     0        3.370
       21    O    131     0     0     0      H     30     1     1     0        4.106
       22    O    131     0     0     0      O     24     0     0     0        3.072
       23    O    131     0     0     0      H    123     1     1     0        2.846
       24    O    131     0     0     0      H    121     0     0     0        3.981
       25    H     32     0     0     0      O     22     1     1     0        3.380
       26    H     32     0     0     0      O     41     0     0     0        2.861
       27    H     32     0     0     0      H     30     1     1     0        3.886
       28    H     32     0     0     0      O     24     0     0     0        0.966
       29    H     32     0     0     0      H    121     0     0     0        4.905
       30    O     22     1     1     0      H     30     1     1     0        0.965
       31    O     22     1     1     0      O     24     0     0     0        3.177
       32    O     22     1     1     0      H    123     1     1     0        4.886
       33    O     41     0     0     0      H     30     1     1     0        4.975
       34    O     41     0     0     0      O     24     0     0     0        2.869
       35    O     41     0     0     0      H    121     0     0     0        2.823
       36    H     30     1     1     0      O     24     0     0     0        3.560


 ************* T O P O L O G I C A L  A N A L I S Y S  O F  R H O *************


 COMPUTATIONAL CONDITIONS :
                           IAUTO                                     :    -2
                           ALGORITHM FOR CP SEARCH                   :    EF
                           DETERMINATION OF BOND PATH ATTRACTORS     :     T
                           MAX.NUM. OF N.R. OR EIG. FOL. STEPS       :    15
                           NEIGHBORS OF EACH NON-EQUIVALENT ATOM     :    10
                           THRESHOLD ON INTERNUC. DISTANCES (ANG)    :   5.0
                           PRINT N.RAPH OR E.FOL. OR PAR. EQ. SEARCH :     F
                           TOTAL NUMBER OF PAIRS CONSIDERED          :    36


 ********************
 SEARCH OF (3,-3) CPS
 ********************

 CP N.      1
 *********

 CP TYPE                        :  (3,-3)
 COORD(AU)  (X  Y  Z)           :  5.8310E+00 -7.0799E-01  1.1459E+01
 COORD FRACT. CONV. CELL        :  1.3570E-01 -9.6131E-03  4.8756E-01
 PROPERTIES (RHO,GRHO,LAP)      :  2.5714E+03  7.4244E-07 -1.1473E+08
 KINETIC ENERGY DENSITIES (G,K) :  1.0090E+04  2.8693E+07
 VIRIAL DENSITY                 : -2.8703E+07
 ELF(PAA)                       :  9.9995E-01

 SPECTRAL DECOMP. OF THE HESSIAN OF RHO

 EIGENVALUES (L1 L2 L3)         : -3.8244E+07 -3.8244E+07 -3.8244E+07
 EIGENVECTORS                   :  2.4484E-01 -4.5660E-01  8.5532E-01
                                   4.3401E-01 -7.3724E-01 -5.1780E-01
                                   8.6700E-01  4.9799E-01  1.7666E-02


 CLUSTER OF ATOMS AROUND THE CP 
 NEW  OLD   CELL  AT. NU.         COORD.(AU)             DISTANCE (ANG)
     1     129       0     0     0   16        5.831  -0.708  11.459          0.000
     2     130       1     1     0    8        3.389  -1.655  12.586          1.509
     3     131       0     0     0    8        5.701   1.863  10.210          1.514
     4      32       0     0     0    1        9.504   1.113   8.239          2.759
     5      22       1     1     0    8       10.794  -0.521  14.277          3.022
     6      41       0     0     0    8        6.620  -2.951   6.143          3.082
     7      30       1     1     0    1       10.510  -2.278  14.675          3.117
     8      24       0     0     0    8       10.774  -0.200   8.282          3.121
     9     123       1     1     0    1        2.432   3.395  14.196          3.170
    10     121       0     0     0    1        2.267  -4.660   8.710          3.170

 CP N.      2
 *********

 CP TYPE                        :  (3,-3)
 COORD(AU)  (X  Y  Z)           :  3.3894E+00 -1.6546E+00  1.2586E+01
 COORD FRACT. CONV. CELL        :  7.7410E-02 -3.4985E-02 -4.6454E-01
 PROPERTIES (RHO,GRHO,LAP)      :  3.0219E+02  3.1959E-09 -4.5155E+06
 KINETIC ENERGY DENSITIES (G,K) :  7.4355E+01  1.1289E+06
 VIRIAL DENSITY                 : -1.1290E+06
 ELF(PAA)                       :  1.0000E+00

 SPECTRAL DECOMP. OF THE HESSIAN OF RHO

 EIGENVALUES (L1 L2 L3)         : -1.5052E+06 -1.5052E+06 -1.5051E+06
 EIGENVECTORS                   :  3.4669E-01 -7.2846E-01  5.9089E-01
                                   4.9916E-01 -3.9006E-01 -7.7375E-01
                                   7.9413E-01  5.6320E-01  2.2839E-01


 CLUSTER OF ATOMS AROUND THE CP 
 NEW  OLD   CELL  AT. NU.         COORD.(AU)             DISTANCE (ANG)
     1     130       1     1     0    8        3.389  -1.655  12.586          0.000
     2     129       0     0     0   16        5.831  -0.708  11.459          1.509
     3     131       0     0     0    8        5.701   1.863  10.210          2.558
     4     121       0     0     0    1        2.267  -4.660   8.710          2.662
     5     123       1     1     0    1        2.432   3.395  14.196          2.850
     6     107       1     1     0    6        1.287   2.773  15.765          3.091
     7     105       0     0     0    6        1.200  -3.482   7.433          3.116
     8      91       1     1     0    6        2.276   1.571  17.829          3.310
     9      43       1     1     0    8        6.635   1.680  16.901          3.358
    10      75       1     1     0    6        4.899   0.935  18.379          3.452

 CP N.      3
 *********

 CP TYPE                        :  (3,-3)
 COORD(AU)  (X  Y  Z)           :  5.7007E+00  1.8629E+00  1.0210E+01
 COORD FRACT. CONV. CELL        :  1.3596E-01  5.0392E-02  4.3418E-01
 PROPERTIES (RHO,GRHO,LAP)      :  3.0215E+02  1.3662E-09 -4.5148E+06
 KINETIC ENERGY DENSITIES (G,K) :  7.4390E+01  1.1288E+06
 VIRIAL DENSITY                 : -1.1288E+06
 ELF(PAA)                       :  1.0000E+00

 SPECTRAL DECOMP. OF THE HESSIAN OF RHO

 EIGENVALUES (L1 L2 L3)         : -1.5049E+06 -1.5049E+06 -1.5049E+06
 EIGENVECTORS                   :  1.4707E-01 -2.0317E-01  9.6803E-01
                                  -1.1341E-01 -9.7569E-01 -1.8755E-01
                                   9.8260E-01 -8.2200E-02 -1.6654E-01


 CLUSTER OF ATOMS AROUND THE CP 
 NEW  OLD   CELL  AT. NU.         COORD.(AU)             DISTANCE (ANG)
     1     131       0     0     0    8        5.701   1.863  10.210          0.000
     2     129       0     0     0   16        5.831  -0.708  11.459          1.514
     3      32       0     0     0    1        9.504   1.113   8.239          2.302
     4     130       1     1     0    8        3.389  -1.655  12.586          2.558
     5     123       1     1     0    1        2.432   3.395  14.196          2.846
     6      24       0     0     0    8       10.774  -0.200   8.282          3.072
     7      41       0     0     0    8        6.620  -2.951   6.143          3.370
     8      43       1     1     0    8        6.635   1.680  16.901          3.576
     9      22       1     1     0    8       10.794  -0.521  14.277          3.673
    10      73       0     0     0    6        4.911  -2.220   4.620          3.687

 CP N.      4
 *********

 CP TYPE                        :  (3,-3)
 COORD(AU)  (X  Y  Z)           :  9.5356E+00  1.0807E+00  8.2400E+00
 COORD FRACT. CONV. CELL        :  2.2456E-01  3.7207E-02  3.5062E-01
 PROPERTIES (RHO,GRHO,LAP)      :  4.0639E-01  3.4866E-09 -2.2529E+01
 KINETIC ENERGY DENSITIES (G,K) :  2.9487E-02  5.6616E+00
 VIRIAL DENSITY                 : -5.6911E+00
 ELF(PAA)                       :  9.9788E-01

 SPECTRAL DECOMP. OF THE HESSIAN OF RHO

 EIGENVALUES (L1 L2 L3)         : -7.9720E+00 -7.9711E+00 -6.5855E+00
 EIGENVECTORS                   : -6.5810E-01 -2.8973E-01  6.9496E-01
                                  -6.4796E-01 -2.5218E-01 -7.1872E-01
                                  -3.8349E-01  9.2329E-01  2.1775E-02


 CLUSTER OF ATOMS AROUND THE CP 
 NEW  OLD   CELL  AT. NU.         COORD.(AU)             DISTANCE (ANG)
     1      32       0     0     0    1        9.504   1.113   8.239          0.024
     2      24       0     0     0    8       10.774  -0.200   8.282          0.943
     3     131       0     0     0    8        5.701   1.863  10.210          2.319
     4       7       0     0     0   21       13.345  -0.097  11.265          2.648
     5       5       0     0     0   21       10.679  -3.141   5.667          2.685
     6      45       0     0     0    8       12.856   3.902  11.016          2.734
     7     129       0     0     0   16        5.831  -0.708  11.459          2.764
     8      41       0     0     0    8        6.620  -2.951   6.143          2.857
     9      29       0     0     0    1       11.597   0.823   2.705          3.128
    10      21       0     0     0    8       10.801  -0.802   2.502          3.265

 CP N.      5
 *********

 CP TYPE                        :  (3,-3)
 COORD(AU)  (X  Y  Z)           :  1.0794E+01 -5.2052E-01  1.4277E+01
 COORD FRACT. CONV. CELL        :  2.5206E-01  1.0692E-03 -3.9246E-01
 PROPERTIES (RHO,GRHO,LAP)      :  3.0120E+02  9.5729E-10 -4.5000E+06
 KINETIC ENERGY DENSITIES (G,K) :  7.6489E+01  1.1251E+06
 VIRIAL DENSITY                 : -1.1252E+06
 ELF(PAA)                       :  1.0000E+00

 SPECTRAL DECOMP. OF THE HESSIAN OF RHO

 EIGENVALUES (L1 L2 L3)         : -1.5000E+06 -1.5000E+06 -1.5000E+06
 EIGENVECTORS                   :  2.0344E-01  3.2416E-01 -9.2387E-01
                                   9.5266E-01 -2.8331E-01  1.1037E-01
                                  -2.2596E-01 -9.0258E-01 -3.6645E-01


 CLUSTER OF ATOMS AROUND THE CP 
 NEW  OLD   CELL  AT. NU.         COORD.(AU)             DISTANCE (ANG)
     1      22       1     1     0    8       10.794  -0.521  14.277          0.000
     2      30       1     1     0    1       10.510  -2.278  14.675          0.965
     3       6       1     1     0   21       10.653   1.967  17.349          2.093
     4       7       0     0     0   21       13.345  -0.097  11.265          2.101
     5      48       0     0     0    8       13.411  -4.186  11.756          2.731
     6      43       1     1     0    8        6.635   1.680  16.901          2.851
     7      58       1     1     0    8       11.133   4.865  14.750          2.866
     8      61       1     1     0    8       16.130   0.610  13.966          2.891
     9     129       0     0     0   16        5.831  -0.708  11.459          3.022
    10      42       1     1     0    8       14.737   1.827  17.781          3.055

 CP N.      6
 *********

 CP TYPE                        :  (3,-3)
 COORD(AU)  (X  Y  Z)           :  6.6199E+00 -2.9513E+00  6.1432E+00
 COORD FRACT. CONV. CELL        :  1.5109E-01 -6.0731E-02  2.6175E-01
 PROPERTIES (RHO,GRHO,LAP)      :  3.0140E+02  7.1393E-10 -4.5033E+06
 KINETIC ENERGY DENSITIES (G,K) :  7.6491E+01  1.1259E+06
 VIRIAL DENSITY                 : -1.1260E+06
 ELF(PAA)                       :  1.0000E+00

 SPECTRAL DECOMP. OF THE HESSIAN OF RHO

 EIGENVALUES (L1 L2 L3)         : -1.5011E+06 -1.5011E+06 -1.5011E+06
 EIGENVECTORS                   : -7.8248E-01 -7.6644E-02  6.1794E-01
                                   2.4945E-01 -9.4786E-01  1.9831E-01
                                  -5.7053E-01 -3.0932E-01 -7.6080E-01


 CLUSTER OF ATOMS AROUND THE CP 
 NEW  OLD   CELL  AT. NU.         COORD.(AU)             DISTANCE (ANG)
     1      41       0     0     0    8        6.620  -2.951   6.143          0.000
     2      73       0     0     0    6        4.911  -2.220   4.620          1.272
     3       5       0     0     0   21       10.679  -3.141   5.667          2.165
     4      62       0     0     0    8        5.346  -1.459   2.390          2.241
     5      89       0     0     0    6        2.276  -2.237   5.440          2.359
     6     121       0     0     0    1        2.267  -4.660   8.710          2.823
     7      32       0     0     0    1        9.504   1.113   8.239          2.861
     8      24       0     0     0    8       10.774  -0.200   8.282          2.869
     9      57       0     0     0    8       10.078  -6.083   3.138          2.937
    10     105       0     0     0    6        1.200  -3.482   7.433          2.961

 CP N.      7
 *********

 CP TYPE                        :  (3,-3)
 COORD(AU)  (X  Y  Z)           :  1.0517E+01 -2.2354E+00  1.4666E+01
 COORD FRACT. CONV. CELL        :  2.4335E-01 -3.9404E-02 -3.7578E-01
 PROPERTIES (RHO,GRHO,LAP)      :  4.1292E-01  2.5851E-09 -2.2996E+01
 KINETIC ENERGY DENSITIES (G,K) :  2.9666E-02  5.7787E+00
 VIRIAL DENSITY                 : -5.8084E+00
 ELF(PAA)                       :  9.9797E-01

 SPECTRAL DECOMP. OF THE HESSIAN OF RHO

 EIGENVALUES (L1 L2 L3)         : -8.1217E+00 -8.1210E+00 -6.7535E+00
 EIGENVECTORS                   : -7.2481E-01 -6.7160E-01  1.5361E-01
                                   2.5889E-01 -5.8885E-02  9.6411E-01
                                   6.3845E-01 -7.3857E-01 -2.1655E-01


 CLUSTER OF ATOMS AROUND THE CP 
 NEW  OLD   CELL  AT. NU.         COORD.(AU)             DISTANCE (ANG)
     1      30       1     1     0    1       10.510  -2.278  14.675          0.023
     2      22       1     1     0    8       10.794  -0.521  14.277          0.942
     3      48       0     0     0    8       13.411  -4.186  11.756          2.405
     4       7       0     0     0   21       13.345  -0.097  11.265          2.600
     5       6       1     1     0   21       10.653   1.967  17.349          2.640
     6      23       1     1     0    8       10.737  -0.773  20.184          3.023
     7     129       0     0     0   16        5.831  -0.708  11.459          3.111
     8      80       0     0     0    6       12.472  -6.019  10.532          3.141
     9      43       1     1     0    8        6.635   1.680  16.901          3.148
    10      31       1     1     0    1       12.391  -1.434  20.568          3.304

 CP N.      8
 *********

 CP TYPE                        :  (3,-3)
 COORD(AU)  (X  Y  Z)           :  1.0774E+01 -1.9974E-01  8.2818E+00
 COORD FRACT. CONV. CELL        :  2.5184E-01  8.8819E-03  3.5256E-01
 PROPERTIES (RHO,GRHO,LAP)      :  3.0114E+02  1.3431E-09 -4.4990E+06
 KINETIC ENERGY DENSITIES (G,K) :  7.6647E+01  1.1248E+06
 VIRIAL DENSITY                 : -1.1249E+06
 ELF(PAA)                       :  1.0000E+00

 SPECTRAL DECOMP. OF THE HESSIAN OF RHO

 EIGENVALUES (L1 L2 L3)         : -1.4997E+06 -1.4997E+06 -1.4997E+06
 EIGENVECTORS                   :  6.8264E-01 -3.3450E-01  6.4970E-01
                                  -7.2946E-01 -3.6479E-01  5.7863E-01
                                   4.3449E-02 -8.6893E-01 -4.9302E-01


 CLUSTER OF ATOMS AROUND THE CP 
 NEW  OLD   CELL  AT. NU.         COORD.(AU)             DISTANCE (ANG)
     1      24       0     0     0    8       10.774  -0.200   8.282          0.000
     2      32       0     0     0    1        9.504   1.113   8.239          0.966
     3       5       0     0     0   21       10.679  -3.141   5.667          2.083
     4       7       0     0     0   21       13.345  -0.097  11.265          2.085
     5      45       0     0     0    8       12.856   3.902  11.016          2.832
     6      41       0     0     0    8        6.620  -2.951   6.143          2.869
     7      64       0     0     0    8       16.182  -0.760   8.624          2.883
     8      60       0     0     0    8       11.023  -5.748   8.634          2.945
     9      44       0     0     0    8       14.731  -3.246   5.516          3.021
    10      29       0     0     0    1       11.597   0.823   2.705          3.032

 CP N.      9
 *********

 CP TYPE                        :  (3,-3)
 COORD(AU)  (X  Y  Z)           :  2.4151E+00  3.3863E+00  1.4218E+01
 COORD FRACT. CONV. CELL        :  6.1230E-02  8.1505E-02 -3.9564E-01
 PROPERTIES (RHO,GRHO,LAP)      :  4.4042E-01  4.1056E-12 -2.6220E+01
 KINETIC ENERGY DENSITIES (G,K) :  6.6239E-03  6.5617E+00
 VIRIAL DENSITY                 : -6.5683E+00
 ELF(PAA)                       :  9.9992E-01

 SPECTRAL DECOMP. OF THE HESSIAN OF RHO

 EIGENVALUES (L1 L2 L3)         : -8.9993E+00 -8.9928E+00 -8.2283E+00
 EIGENVECTORS                   :  8.1600E-01  1.1977E-01  5.6550E-01
                                  -3.3884E-01  8.9171E-01  3.0008E-01
                                   4.6832E-01  4.3648E-01 -7.6822E-01


 CLUSTER OF ATOMS AROUND THE CP 
 NEW  OLD   CELL  AT. NU.         COORD.(AU)             DISTANCE (ANG)
     1     123       1     1     0    1        2.432   3.395  14.196          0.016
     2     107       1     1     0    6        1.287   2.773  15.765          1.064
     3      91       1     1     0    6        2.276   1.571  17.829          2.140
     4      97       1     1     0    6       -1.345   3.078  15.921          2.191
     5     113       1     1     0    1       -2.495   3.972  14.490          2.620
     6      43       1     1     0    8        6.635   1.680  16.901          2.796
     7     130       1     1     0    8        3.389  -1.655  12.586          2.851
     8     131       0     0     0    8        5.701   1.863  10.210          2.859
     9      75       1     1     0    6        4.899   0.935  18.379          2.874
    10     129       0     0     0   16        5.831  -0.708  11.459          3.177

 CP N.     10
 *********

 CP TYPE                        :  (3,-3)
 COORD(AU)  (X  Y  Z)           :  2.2519E+00 -4.6430E+00  8.6913E+00
 COORD FRACT. CONV. CELL        :  4.6829E-02 -1.0611E-01  3.7011E-01
 PROPERTIES (RHO,GRHO,LAP)      :  4.4234E-01  3.5810E-12 -2.6368E+01
 KINETIC ENERGY DENSITIES (G,K) :  6.7846E-03  6.5987E+00
 VIRIAL DENSITY                 : -6.6055E+00
 ELF(PAA)                       :  9.9992E-01

 SPECTRAL DECOMP. OF THE HESSIAN OF RHO

 EIGENVALUES (L1 L2 L3)         : -9.0469E+00 -9.0398E+00 -8.2811E+00
 EIGENVECTORS                   : -8.3183E-01  1.7916E-01  5.2533E-01
                                  -1.9200E-01  7.9515E-01 -5.7521E-01
                                   5.2077E-01  5.7934E-01  6.2703E-01


 CLUSTER OF ATOMS AROUND THE CP 
 NEW  OLD   CELL  AT. NU.         COORD.(AU)             DISTANCE (ANG)
     1     121       0     0     0    1        2.267  -4.660   8.710          0.015
     2     105       0     0     0    6        1.200  -3.482   7.433          1.063
     3      89       0     0     0    6        2.276  -2.237   5.440          2.140
     4      99       0     0     0    6       -1.428  -3.131   7.567          2.188
     5     115       0     0     0    1       -2.636  -3.962   8.986          2.616
     6     130       1     1     0    8        3.389  -1.655  12.586          2.667
     7      41       0     0     0    8        6.620  -2.951   6.143          2.822
     8      73       0     0     0    6        4.911  -2.220   4.620          2.875
     9     129       0     0     0   16        5.831  -0.708  11.459          3.173
    10      83       0     0     0    6       -2.336  -1.637   5.668          3.314


 ********************
 SEARCH OF (3,-1) CPS
 ********************

 CP N.     11
 *********

 CP TYPE                        :  (3,-1)
 COORD(AU)  (X  Y  Z)           :  4.8351E+00 -1.0775E+00  1.1913E+01
 COORD FRACT. CONV. CELL        :  1.1195E-01 -1.9574E-02 -4.9314E-01
 PROPERTIES (RHO,GRHO,LAP)      :  2.3258E-01  4.2634E-13  7.4048E-01
 KINETIC ENERGY DENSITIES (G,K) :  3.9274E-01  2.0762E-01
 VIRIAL DENSITY                 : -6.0037E-01
 ELF(PAA)                       :  2.9253E-01

 SPECTRAL DECOMP. OF THE HESSIAN OF RHO

 EIGENVALUES (L1 L2 L3)         : -3.4564E-01 -2.9708E-01  1.3832E+00
 EIGENVECTORS                   : -4.4888E-01 -2.3430E-01  8.6233E-01
                                   8.4240E-01 -4.3289E-01  3.2089E-01
                                  -2.9811E-01 -8.7047E-01 -3.9168E-01

 ELLIPTICITY                    :  1.6347E-01

 CLUSTER OF ATOMS AROUND THE CP 
 NEW  OLD   CELL  AT. NU.         COORD.(AU)             DISTANCE (ANG)
     1     129       0     0     0   16        5.831  -0.708  11.459          0.611
     2     130       1     1     0    8        3.389  -1.655  12.586          0.897
     3     131       0     0     0    8        5.701   1.863  10.210          1.856
     4     121       0     0     0    1        2.267  -4.660   8.710          2.883
     5     123       1     1     0    1        2.432   3.395  14.196          2.946
     6      43       1     1     0    8        6.635   1.680  16.901          3.163
     7     105       0     0     0    6        1.200  -3.482   7.433          3.307
     8      41       0     0     0    8        6.620  -2.951   6.143          3.346
     9      32       0     0     0    1        9.504   1.113   8.239          3.351
    10      30       1     1     0    1       10.510  -2.278  14.675          3.400

 ******************************
 SEARCH OF BOND PATH ATTRACTORS
 ******************************

 ATTRACTOR CP TYPE              :  (3,-3)
 COORD(AU)  (X  Y  Z)           :  5.8310E+00 -7.0799E-01  1.1459E+01
 COORD FRACT. CONV. CELL        :  1.3570E-01 -9.6131E-03  4.8756E-01
 PROPERTIES (RHO,GRHO,LAP)      :  2.5714E+03  4.3447E-04 -1.1473E+08
 TRAJECTORY LENGTH(ANG)         :  6.1123E-01
 INTEGRATION STEPS              :      46

 CLUSTER OF ATOMS AROUND THE TERMINUS OF THE PATH 
 NEW  OLD   CELL  AT. NU.         COORD.(AU)             DISTANCE (ANG)
     1     129       0     0     0   16        5.831  -0.708  11.459          0.000
     2     130       1     1     0    8        3.389  -1.655  12.586          1.509
     3     131       0     0     0    8        5.701   1.863  10.210          1.514
     4      32       0     0     0    1        9.504   1.113   8.239          2.759


 ATTRACTOR CP TYPE              :  (3,-3)
 COORD(AU)  (X  Y  Z)           :  3.3894E+00 -1.6546E+00  1.2586E+01
 COORD FRACT. CONV. CELL        :  7.7410E-02 -3.4985E-02 -4.6454E-01
 PROPERTIES (RHO,GRHO,LAP)      :  3.0219E+02  5.7371E-09 -4.5155E+06
 TRAJECTORY LENGTH(ANG)         :  8.9761E-01
 INTEGRATION STEPS              :      52

 CLUSTER OF ATOMS AROUND THE TERMINUS OF THE PATH 
 NEW  OLD   CELL  AT. NU.         COORD.(AU)             DISTANCE (ANG)
     1     130       1     1     0    8        3.389  -1.655  12.586          0.000
     2     129       0     0     0   16        5.831  -0.708  11.459          1.509
     3     131       0     0     0    8        5.701   1.863  10.210          2.558
     4     121       0     0     0    1        2.267  -4.660   8.710          2.662


 BPL (ANG) ; RAB ; (BPL/RAB)    :  1.5088E+00  1.5085E+00  1.0002E+00

 CP N.     12
 *********

 CP TYPE                        :  (3,-1)
 COORD(AU)  (X  Y  Z)           :  5.7707E+00  3.3439E-01  1.0954E+01
 COORD FRACT. CONV. CELL        :  1.3563E-01  1.4707E-02  4.6596E-01
 PROPERTIES (RHO,GRHO,LAP)      :  2.3046E-01  1.0987E-15  6.9977E-01
 KINETIC ENERGY DENSITIES (G,K) :  3.8071E-01  2.0576E-01
 VIRIAL DENSITY                 : -5.8647E-01
 ELF(PAA)                       :  2.9915E-01

 SPECTRAL DECOMP. OF THE HESSIAN OF RHO

 EIGENVALUES (L1 L2 L3)         : -3.3814E-01 -2.9161E-01  1.3295E+00
 EIGENVECTORS                   :  9.7143E-01 -2.3067E-01  5.5820E-02
                                  -5.1657E-02 -4.3508E-01 -8.9891E-01
                                  -2.3163E-01 -8.7034E-01  4.3457E-01

 ELLIPTICITY                    :  1.5955E-01

 CLUSTER OF ATOMS AROUND THE CP 
 NEW  OLD   CELL  AT. NU.         COORD.(AU)             DISTANCE (ANG)
     1     129       0     0     0   16        5.831  -0.708  11.459          0.614
     2     131       0     0     0    8        5.701   1.863  10.210          0.900
     3     130       1     1     0    8        3.389  -1.655  12.586          1.855
     4      32       0     0     0    1        9.504   1.113   8.239          2.477
     5     123       1     1     0    1        2.432   3.395  14.196          2.948
     6      24       0     0     0    8       10.774  -0.200   8.282          3.015
     7      41       0     0     0    8        6.620  -2.951   6.143          3.115
     8      22       1     1     0    8       10.794  -0.521  14.277          3.219
     9      43       1     1     0    8        6.635   1.680  16.901          3.259
    10     121       0     0     0    1        2.267  -4.660   8.710          3.440

 ******************************
 SEARCH OF BOND PATH ATTRACTORS
 ******************************

 ATTRACTOR CP TYPE              :  (3,-3)
 COORD(AU)  (X  Y  Z)           :  5.8310E+00 -7.0799E-01  1.1459E+01
 COORD FRACT. CONV. CELL        :  1.3570E-01 -9.6131E-03  4.8756E-01
 PROPERTIES (RHO,GRHO,LAP)      :  2.5714E+03  2.5847E-08 -1.1473E+08
 TRAJECTORY LENGTH(ANG)         :  6.1389E-01
 INTEGRATION STEPS              :      44

 CLUSTER OF ATOMS AROUND THE TERMINUS OF THE PATH 
 NEW  OLD   CELL  AT. NU.         COORD.(AU)             DISTANCE (ANG)
     1     129       0     0     0   16        5.831  -0.708  11.459          0.000
     2     130       1     1     0    8        3.389  -1.655  12.586          1.509
     3     131       0     0     0    8        5.701   1.863  10.210          1.514
     4      32       0     0     0    1        9.504   1.113   8.239          2.759


 ATTRACTOR CP TYPE              :  (3,-3)
 COORD(AU)  (X  Y  Z)           :  5.7007E+00  1.8629E+00  1.0210E+01
 COORD FRACT. CONV. CELL        :  1.3596E-01  5.0392E-02  4.3418E-01
 PROPERTIES (RHO,GRHO,LAP)      :  3.0215E+02  1.3662E-09 -4.5148E+06
 TRAJECTORY LENGTH(ANG)         :  9.0041E-01
 INTEGRATION STEPS              :      49

 CLUSTER OF ATOMS AROUND THE TERMINUS OF THE PATH 
 NEW  OLD   CELL  AT. NU.         COORD.(AU)             DISTANCE (ANG)
     1     131       0     0     0    8        5.701   1.863  10.210          0.000
     2     129       0     0     0   16        5.831  -0.708  11.459          1.514
     3      32       0     0     0    1        9.504   1.113   8.239          2.302
     4     130       1     1     0    8        3.389  -1.655  12.586          2.558


 BPL (ANG) ; RAB ; (BPL/RAB)    :  1.5143E+00  1.5141E+00  1.0001E+00

 CP N.     13
 *********

 CP TYPE                        :  (3,-1)
 COORD(AU)  (X  Y  Z)           :  8.4844E+00 -6.7647E-01  1.2939E+01
 COORD FRACT. CONV. CELL        :  1.9781E-01 -5.5070E-03 -4.4944E-01
 PROPERTIES (RHO,GRHO,LAP)      :  1.3451E-02  3.1864E-13  4.9680E-02
 KINETIC ENERGY DENSITIES (G,K) :  1.0240E-02 -2.1800E-03
 VIRIAL DENSITY                 : -8.0599E-03
 ELF(PAA)                       :  4.3525E-02

 SPECTRAL DECOMP. OF THE HESSIAN OF RHO

 EIGENVALUES (L1 L2 L3)         : -1.2642E-02 -1.1910E-02  7.4232E-02
 EIGENVECTORS                   : -1.5962E-01  4.7144E-01  8.6733E-01
                                  -8.9669E-01 -4.3671E-01  7.2354E-02
                                   4.1288E-01 -7.6618E-01  4.9244E-01

 ELLIPTICITY                    :  6.1495E-02

 CLUSTER OF ATOMS AROUND THE CP 
 NEW  OLD   CELL  AT. NU.         COORD.(AU)             DISTANCE (ANG)
     1      22       1     1     0    8       10.794  -0.521  14.277          1.415
     2     129       0     0     0   16        5.831  -0.708  11.459          1.608
     3      30       1     1     0    1       10.510  -2.278  14.675          1.647
     4     131       0     0     0    8        5.701   1.863  10.210          2.462
     5      43       1     1     0    8        6.635   1.680  16.901          2.628
     6      32       0     0     0    1        9.504   1.113   8.239          2.715
     7       7       0     0     0   21       13.345  -0.097  11.265          2.737
     8     130       1     1     0    8        3.389  -1.655  12.586          2.752
     9      24       0     0     0    8       10.774  -0.200   8.282          2.758
    10       6       1     1     0   21       10.653   1.967  17.349          2.953

 ******************************
 SEARCH OF BOND PATH ATTRACTORS
 ******************************

 ATTRACTOR CP TYPE              :  (3,-3)
 COORD(AU)  (X  Y  Z)           :  1.0794E+01 -5.2052E-01  1.4277E+01
 COORD FRACT. CONV. CELL        :  2.5206E-01  1.0692E-03 -3.9246E-01
 PROPERTIES (RHO,GRHO,LAP)      :  3.0120E+02  9.5727E-10 -4.5000E+06
 TRAJECTORY LENGTH(ANG)         :  1.4160E+00
 INTEGRATION STEPS              :      67

 CLUSTER OF ATOMS AROUND THE TERMINUS OF THE PATH 
 NEW  OLD   CELL  AT. NU.         COORD.(AU)             DISTANCE (ANG)
     1      22       1     1     0    8       10.794  -0.521  14.277          0.000
     2      30       1     1     0    1       10.510  -2.278  14.675          0.965
     3       6       1     1     0   21       10.653   1.967  17.349          2.093
     4       7       0     0     0   21       13.345  -0.097  11.265          2.101


 ATTRACTOR CP TYPE              :  (3,-3)
 COORD(AU)  (X  Y  Z)           :  5.8310E+00 -7.0799E-01  1.1459E+01
 COORD FRACT. CONV. CELL        :  1.3570E-01 -9.6131E-03  4.8756E-01
 PROPERTIES (RHO,GRHO,LAP)      :  2.5714E+03  2.9240E-05 -1.1473E+08
 TRAJECTORY LENGTH(ANG)         :  1.6164E+00
 INTEGRATION STEPS              :      57

 CLUSTER OF ATOMS AROUND THE TERMINUS OF THE PATH 
 NEW  OLD   CELL  AT. NU.         COORD.(AU)             DISTANCE (ANG)
     1     129       0     0     0   16        5.831  -0.708  11.459          0.000
     2     130       1     1     0    8        3.389  -1.655  12.586          1.509
     3     131       0     0     0    8        5.701   1.863  10.210          1.514
     4      32       0     0     0    1        9.504   1.113   8.239          2.759


 BPL (ANG) ; RAB ; (BPL/RAB)    :  3.0324E+00  3.0218E+00  1.0035E+00

 CP N.     14
 *********

 CP TYPE                        :  (3,-1)
 COORD(AU)  (X  Y  Z)           :  6.2110E+00 -1.9043E+00  8.6590E+00
 COORD FRACT. CONV. CELL        :  1.4296E-01 -3.6928E-02  3.6861E-01
 PROPERTIES (RHO,GRHO,LAP)      :  1.0237E-02  6.7960E-14  4.1221E-02
 KINETIC ENERGY DENSITIES (G,K) :  7.9395E-03 -2.3656E-03
 VIRIAL DENSITY                 : -5.5738E-03
 ELF(PAA)                       :  2.9565E-02

 SPECTRAL DECOMP. OF THE HESSIAN OF RHO

 EIGENVALUES (L1 L2 L3)         : -9.0882E-03 -8.2822E-03  5.8591E-02
 EIGENVECTORS                   : -9.8530E-01  1.3461E-01  1.0521E-01
                                  -1.6463E-01 -9.1273E-01 -3.7393E-01
                                  -4.5689E-02  3.8575E-01 -9.2147E-01

 ELLIPTICITY                    :  9.7320E-02

 CLUSTER OF ATOMS AROUND THE CP 
 NEW  OLD   CELL  AT. NU.         COORD.(AU)             DISTANCE (ANG)
     1      41       0     0     0    8        6.620  -2.951   6.143          1.458
     2     129       0     0     0   16        5.831  -0.708  11.459          1.624
     3     131       0     0     0    8        5.701   1.863  10.210          2.173
     4      73       0     0     0    6        4.911  -2.220   4.620          2.251
     5      32       0     0     0    1        9.504   1.113   8.239          2.374
     6     121       0     0     0    1        2.267  -4.660   8.710          2.546
     7     130       1     1     0    8        3.389  -1.655  12.586          2.562
     8      24       0     0     0    8       10.774  -0.200   8.282          2.585
     9      89       0     0     0    6        2.276  -2.237   5.440          2.696
    10     105       0     0     0    6        1.200  -3.482   7.433          2.855

 ******************************
 SEARCH OF BOND PATH ATTRACTORS
 ******************************

 ATTRACTOR CP TYPE              :  (3,-3)
 COORD(AU)  (X  Y  Z)           :  6.6199E+00 -2.9513E+00  6.1432E+00
 COORD FRACT. CONV. CELL        :  1.5109E-01 -6.0731E-02  2.6175E-01
 PROPERTIES (RHO,GRHO,LAP)      :  3.0140E+02  7.1393E-10 -4.5033E+06
 TRAJECTORY LENGTH(ANG)         :  1.4595E+00
 INTEGRATION STEPS              :      67

 CLUSTER OF ATOMS AROUND THE TERMINUS OF THE PATH 
 NEW  OLD   CELL  AT. NU.         COORD.(AU)             DISTANCE (ANG)
     1      41       0     0     0    8        6.620  -2.951   6.143          0.000
     2      73       0     0     0    6        4.911  -2.220   4.620          1.272
     3       5       0     0     0   21       10.679  -3.141   5.667          2.165
     4      62       0     0     0    8        5.346  -1.459   2.390          2.241


 ATTRACTOR CP TYPE              :  (3,-3)
 COORD(AU)  (X  Y  Z)           :  5.8310E+00 -7.0799E-01  1.1459E+01
 COORD FRACT. CONV. CELL        :  1.3570E-01 -9.6131E-03  4.8756E-01
 PROPERTIES (RHO,GRHO,LAP)      :  2.5714E+03  2.5847E-08 -1.1473E+08
 TRAJECTORY LENGTH(ANG)         :  1.6307E+00
 INTEGRATION STEPS              :      57

 CLUSTER OF ATOMS AROUND THE TERMINUS OF THE PATH 
 NEW  OLD   CELL  AT. NU.         COORD.(AU)             DISTANCE (ANG)
     1     129       0     0     0   16        5.831  -0.708  11.459          0.000
     2     130       1     1     0    8        3.389  -1.655  12.586          1.509
     3     131       0     0     0    8        5.701   1.863  10.210          1.514
     4      32       0     0     0    1        9.504   1.113   8.239          2.759


 BPL (ANG) ; RAB ; (BPL/RAB)    :  3.0902E+00  3.0819E+00  1.0027E+00

 CP N.     15
 *********

 CP TYPE                        :  (3,-1)
 COORD(AU)  (X  Y  Z)           :  8.0982E+00  1.1302E+00  9.1490E+00
 COORD FRACT. CONV. CELL        :  1.9104E-01  3.6443E-02  3.8921E-01
 PROPERTIES (RHO,GRHO,LAP)      :  1.2629E-02  9.9477E-13  4.8467E-02
 KINETIC ENERGY DENSITIES (G,K) :  1.0008E-02 -2.1088E-03
 VIRIAL DENSITY                 : -7.8991E-03
 ELF(PAA)                       :  3.7170E-02

 SPECTRAL DECOMP. OF THE HESSIAN OF RHO

 EIGENVALUES (L1 L2 L3)         : -1.2881E-02 -1.0018E-02  7.1366E-02
 EIGENVECTORS                   : -4.8056E-01  1.4209E-02  8.7685E-01
                                  -4.2367E-01 -8.7920E-01 -2.1795E-01
                                  -7.6783E-01  4.7623E-01 -4.2853E-01

 ELLIPTICITY                    :  2.8578E-01

 CLUSTER OF ATOMS AROUND THE CP 
 NEW  OLD   CELL  AT. NU.         COORD.(AU)             DISTANCE (ANG)
     1      32       0     0     0    1        9.504   1.113   8.239          0.886
     2     131       0     0     0    8        5.701   1.863  10.210          1.441
     3      24       0     0     0    8       10.774  -0.200   8.282          1.646
     4     129       0     0     0   16        5.831  -0.708  11.459          1.970
     5      41       0     0     0    8        6.620  -2.951   6.143          2.794
     6       7       0     0     0   21       13.345  -0.097  11.265          3.063
     7      45       0     0     0    8       12.856   3.902  11.016          3.077
     8      22       1     1     0    8       10.794  -0.521  14.277          3.188
     9       5       0     0     0   21       10.679  -3.141   5.667          3.220
    10     130       1     1     0    8        3.389  -1.655  12.586          3.419

 ******************************
 SEARCH OF BOND PATH ATTRACTORS
 ******************************

 ATTRACTOR CP TYPE              :  (3,-3)
 COORD(AU)  (X  Y  Z)           :  9.5356E+00  1.0807E+00  8.2400E+00
 COORD FRACT. CONV. CELL        :  2.2456E-01  3.7207E-02  3.5062E-01
 PROPERTIES (RHO,GRHO,LAP)      :  4.0639E-01  6.7393E-12 -2.2529E+01
 TRAJECTORY LENGTH(ANG)         :  9.3590E-01
 INTEGRATION STEPS              :      31

 CLUSTER OF ATOMS AROUND THE TERMINUS OF THE PATH 
 NEW  OLD   CELL  AT. NU.         COORD.(AU)             DISTANCE (ANG)
     1      32       0     0     0    1        9.504   1.113   8.239          0.024
     2      24       0     0     0    8       10.774  -0.200   8.282          0.943
     3     131       0     0     0    8        5.701   1.863  10.210          2.319
     4       7       0     0     0   21       13.345  -0.097  11.265          2.648


 ATTRACTOR CP TYPE              :  (3,-3)
 COORD(AU)  (X  Y  Z)           :  5.7007E+00  1.8629E+00  1.0210E+01
 COORD FRACT. CONV. CELL        :  1.3596E-01  5.0392E-02  4.3418E-01
 PROPERTIES (RHO,GRHO,LAP)      :  3.0215E+02  1.3662E-09 -4.5148E+06
 TRAJECTORY LENGTH(ANG)         :  1.4421E+00
 INTEGRATION STEPS              :      60

 CLUSTER OF ATOMS AROUND THE TERMINUS OF THE PATH 
 NEW  OLD   CELL  AT. NU.         COORD.(AU)             DISTANCE (ANG)
     1     131       0     0     0    8        5.701   1.863  10.210          0.000
     2     129       0     0     0   16        5.831  -0.708  11.459          1.514
     3      32       0     0     0    1        9.504   1.113   8.239          2.302
     4     130       1     1     0    8        3.389  -1.655  12.586          2.558


 BPL (ANG) ; RAB ; (BPL/RAB)    :  2.3780E+00  2.3016E+00  1.0332E+00

 CP N.     16
 *********

 CP TYPE                        :  (3,-1)
 COORD(AU)  (X  Y  Z)           :  2.6400E+00 -2.8834E+00  1.0160E+01
 COORD FRACT. CONV. CELL        :  5.8230E-02 -6.4550E-02  4.3240E-01
 PROPERTIES (RHO,GRHO,LAP)      :  8.3476E-03  2.0419E-17  3.0117E-02
 KINETIC ENERGY DENSITIES (G,K) :  6.1654E-03 -1.3637E-03
 VIRIAL DENSITY                 : -4.8017E-03
 ELF(PAA)                       :  2.4952E-02

 SPECTRAL DECOMP. OF THE HESSIAN OF RHO

 EIGENVALUES (L1 L2 L3)         : -6.7277E-03 -4.3054E-03  4.1150E-02
 EIGENVECTORS                   : -8.5383E-01 -3.9942E-01  3.3382E-01
                                  -2.1641E-01  8.5560E-01  4.7022E-01
                                   4.7343E-01 -3.2925E-01  8.1698E-01

 ELLIPTICITY                    :  5.6263E-01

 CLUSTER OF ATOMS AROUND THE CP 
 NEW  OLD   CELL  AT. NU.         COORD.(AU)             DISTANCE (ANG)
     1     121       0     0     0    1        2.267  -4.660   8.710          1.229
     2     130       1     1     0    8        3.389  -1.655  12.586          1.493
     3     105       0     0     0    6        1.200  -3.482   7.433          1.662
     4     129       0     0     0   16        5.831  -0.708  11.459          2.156
     5      89       0     0     0    6        2.276  -2.237   5.440          2.528
     6      99       0     0     0    6       -1.428  -3.131   7.567          2.556
     7     115       0     0     0    1       -2.636  -3.962   8.986          2.917
     8     131       0     0     0    8        5.701   1.863  10.210          2.989
     9      41       0     0     0    8        6.620  -2.951   6.143          2.992
    10      73       0     0     0    6        4.911  -2.220   4.620          3.188

 ******************************
 SEARCH OF BOND PATH ATTRACTORS
 ******************************

 ATTRACTOR CP TYPE              :  (3,-3)
 COORD(AU)  (X  Y  Z)           :  3.3894E+00 -1.6546E+00  1.2586E+01
 COORD FRACT. CONV. CELL        :  7.7410E-02 -3.4985E-02 -4.6454E-01
 PROPERTIES (RHO,GRHO,LAP)      :  3.0219E+02  2.2766E-09 -4.5155E+06
 TRAJECTORY LENGTH(ANG)         :  1.4948E+00
 INTEGRATION STEPS              :      63

 CLUSTER OF ATOMS AROUND THE TERMINUS OF THE PATH 
 NEW  OLD   CELL  AT. NU.         COORD.(AU)             DISTANCE (ANG)
     1     130       1     1     0    8        3.389  -1.655  12.586          0.000
     2     129       0     0     0   16        5.831  -0.708  11.459          1.509
     3     131       0     0     0    8        5.701   1.863  10.210          2.558
     4     121       0     0     0    1        2.267  -4.660   8.710          2.662


 ATTRACTOR CP TYPE              :  (3,-3)
 COORD(AU)  (X  Y  Z)           :  2.2519E+00 -4.6430E+00  8.6913E+00
 COORD FRACT. CONV. CELL        :  4.6829E-02 -1.0611E-01  3.7011E-01
 PROPERTIES (RHO,GRHO,LAP)      :  4.4234E-01  2.3901E-11 -2.6368E+01
 TRAJECTORY LENGTH(ANG)         :  1.4554E+00
 INTEGRATION STEPS              :      34

 CLUSTER OF ATOMS AROUND THE TERMINUS OF THE PATH 
 NEW  OLD   CELL  AT. NU.         COORD.(AU)             DISTANCE (ANG)
     1     121       0     0     0    1        2.267  -4.660   8.710          0.015
     2     105       0     0     0    6        1.200  -3.482   7.433          1.063
     3      89       0     0     0    6        2.276  -2.237   5.440          2.140
     4      99       0     0     0    6       -1.428  -3.131   7.567          2.188


 BPL (ANG) ; RAB ; (BPL/RAB)    :  2.9502E+00  2.6625E+00  1.1081E+00

 CP N.     17
 *********

 CP TYPE                        :  (3,-1)
 COORD(AU)  (X  Y  Z)           :  2.4901E+00  5.8516E-01  1.4102E+01
 COORD FRACT. CONV. CELL        :  5.9336E-02  1.6121E-02 -4.0030E-01
 PROPERTIES (RHO,GRHO,LAP)      :  7.7048E-03  5.0268E-17  2.7447E-02
 KINETIC ENERGY DENSITIES (G,K) :  5.5714E-03 -1.2904E-03
 VIRIAL DENSITY                 : -4.2810E-03
 ELF(PAA)                       :  2.3431E-02

 SPECTRAL DECOMP. OF THE HESSIAN OF RHO

 EIGENVALUES (L1 L2 L3)         : -6.1467E-03 -3.1576E-03  3.6751E-02
 EIGENVECTORS                   : -9.3366E-01 -1.0176E-01  3.4341E-01
                                  -2.1099E-01 -6.1850E-01 -7.5693E-01
                                  -2.8942E-01  7.7917E-01 -5.5600E-01

 ELLIPTICITY                    :  9.4665E-01

 CLUSTER OF ATOMS AROUND THE CP 
 NEW  OLD   CELL  AT. NU.         COORD.(AU)             DISTANCE (ANG)
     1     123       1     1     0    1        2.432   3.395  14.196          1.488
     2     130       1     1     0    8        3.389  -1.655  12.586          1.508
     3     107       1     1     0    6        1.287   2.773  15.765          1.587
     4      91       1     1     0    6        2.276   1.571  17.829          2.043
     5     129       0     0     0   16        5.831  -0.708  11.459          2.356
     6      75       1     1     0    6        4.899   0.935  18.379          2.604
     7      97       1     1     0    6       -1.345   3.078  15.921          2.605
     8      43       1     1     0    8        6.635   1.680  16.901          2.709
     9     131       0     0     0    8        5.701   1.863  10.210          2.754
    10     113       1     1     0    1       -2.495   3.972  14.490          3.195

 ******************************
 SEARCH OF BOND PATH ATTRACTORS
 ******************************

 ATTRACTOR CP TYPE              :  (3,-3)
 COORD(AU)  (X  Y  Z)           :  3.3894E+00 -1.6546E+00  1.2586E+01
 COORD FRACT. CONV. CELL        :  7.7410E-02 -3.4985E-02 -4.6454E-01
 PROPERTIES (RHO,GRHO,LAP)      :  3.0219E+02  2.2765E-09 -4.5155E+06
 TRAJECTORY LENGTH(ANG)         :  1.5114E+00
 INTEGRATION STEPS              :      64

 CLUSTER OF ATOMS AROUND THE TERMINUS OF THE PATH 
 NEW  OLD   CELL  AT. NU.         COORD.(AU)             DISTANCE (ANG)
     1     130       1     1     0    8        3.389  -1.655  12.586          0.000
     2     129       0     0     0   16        5.831  -0.708  11.459          1.509
     3     131       0     0     0    8        5.701   1.863  10.210          2.558
     4     121       0     0     0    1        2.267  -4.660   8.710          2.662


 CP N.     18
**********

 ATTRACTOR CP TYPE              :  (3,-3)
 COORD(AU)  (X  Y  Z)           :  1.2866E+00  2.7728E+00  1.5765E+01
 COORD FRACT. CONV. CELL        :  3.4087E-02  6.5605E-02 -3.2988E-01
 PROPERTIES (RHO,GRHO,LAP)      :  1.2199E+02  5.5219E-10 -9.6718E+05
 TRAJECTORY LENGTH(ANG)         :  1.6096E+00
 INTEGRATION STEPS              :      61

 CLUSTER OF ATOMS AROUND THE TERMINUS OF THE PATH 
 NEW  OLD   CELL  AT. NU.         COORD.(AU)             DISTANCE (ANG)
     1     107       1     1     0    6        1.287   2.773  15.765          0.000
     2     123       1     1     0    1        2.432   3.395  14.196          1.079
     3      91       1     1     0    6        2.276   1.571  17.829          1.369
     4      97       1     1     0    6       -1.345   3.078  15.921          1.405


 BPL (ANG) ; RAB ; (BPL/RAB)    :  3.1210E+00  3.0914E+00  1.0096E+00

 CP N.     19
 *********

 CP TYPE                        :  (3,-1)
 COORD(AU)  (X  Y  Z)           :  3.7510E+00  2.5477E+00  1.2603E+01
 COORD FRACT. CONV. CELL        :  9.1333E-02  6.3728E-02 -4.6421E-01
 PROPERTIES (RHO,GRHO,LAP)      :  4.3377E-03  5.3896E-17  1.4953E-02
 KINETIC ENERGY DENSITIES (G,K) :  2.9840E-03 -7.5415E-04
 VIRIAL DENSITY                 : -2.2298E-03
 ELF(PAA)                       :  1.2173E-02

 SPECTRAL DECOMP. OF THE HESSIAN OF RHO

 EIGENVALUES (L1 L2 L3)         : -3.3677E-03 -2.4020E-03  2.0722E-02
 EIGENVECTORS                   : -7.8246E-01 -1.2757E-01  6.0949E-01
                                  -6.7864E-02 -9.5549E-01 -2.8711E-01
                                  -6.1899E-01  2.6602E-01 -7.3898E-01

 ELLIPTICITY                    :  4.0204E-01

 CLUSTER OF ATOMS AROUND THE CP 
 NEW  OLD   CELL  AT. NU.         COORD.(AU)             DISTANCE (ANG)
     1     123       1     1     0    1        2.432   3.395  14.196          1.183
     2     131       0     0     0    8        5.701   1.863  10.210          1.673
     3     107       1     1     0    6        1.287   2.773  15.765          2.125
     4     129       0     0     0   16        5.831  -0.708  11.459          2.132
     5     130       1     1     0    8        3.389  -1.655  12.586          2.232
     6      43       1     1     0    8        6.635   1.680  16.901          2.777
     7      91       1     1     0    6        2.276   1.571  17.829          2.920
     8      97       1     1     0    6       -1.345   3.078  15.921          3.230
     9      75       1     1     0    6        4.899   0.935  18.379          3.231
    10     113       1     1     0    1       -2.495   3.972  14.490          3.534

 ******************************
 SEARCH OF BOND PATH ATTRACTORS
 ******************************

 ATTRACTOR CP TYPE              :  (3,-3)
 COORD(AU)  (X  Y  Z)           :  5.7007E+00  1.8629E+00  1.0210E+01
 COORD FRACT. CONV. CELL        :  1.3596E-01  5.0392E-02  4.3418E-01
 PROPERTIES (RHO,GRHO,LAP)      :  3.0215E+02  1.3662E-09 -4.5148E+06
 TRAJECTORY LENGTH(ANG)         :  1.6776E+00
 INTEGRATION STEPS              :      67

 CLUSTER OF ATOMS AROUND THE TERMINUS OF THE PATH 
 NEW  OLD   CELL  AT. NU.         COORD.(AU)             DISTANCE (ANG)
     1     131       0     0     0    8        5.701   1.863  10.210          0.000
     2     129       0     0     0   16        5.831  -0.708  11.459          1.514
     3      32       0     0     0    1        9.504   1.113   8.239          2.302
     4     130       1     1     0    8        3.389  -1.655  12.586          2.558


 ATTRACTOR CP TYPE              :  (3,-3)
 COORD(AU)  (X  Y  Z)           :  2.4151E+00  3.3863E+00  1.4218E+01
 COORD FRACT. CONV. CELL        :  6.1230E-02  8.1505E-02 -3.9564E-01
 PROPERTIES (RHO,GRHO,LAP)      :  4.4042E-01  6.4136E-12 -2.6220E+01
 TRAJECTORY LENGTH(ANG)         :  1.2033E+00
 INTEGRATION STEPS              :      36

 CLUSTER OF ATOMS AROUND THE TERMINUS OF THE PATH 
 NEW  OLD   CELL  AT. NU.         COORD.(AU)             DISTANCE (ANG)
     1     123       1     1     0    1        2.432   3.395  14.196          0.016
     2     107       1     1     0    6        1.287   2.773  15.765          1.064
     3      91       1     1     0    6        2.276   1.571  17.829          2.140
     4      97       1     1     0    6       -1.345   3.078  15.921          2.191


 BPL (ANG) ; RAB ; (BPL/RAB)    :  2.8809E+00  2.8457E+00  1.0124E+00

 CP N.     20
 *********

 CP TYPE                        :  (3,-1)
 COORD(AU)  (X  Y  Z)           :  1.2072E+01 -3.3040E-01  1.2771E+01
 COORD FRACT. CONV. CELL        :  2.8213E-01  7.2617E-03 -4.5647E-01
 PROPERTIES (RHO,GRHO,LAP)      :  7.2395E-02  1.2924E-16  3.1223E-01
 KINETIC ENERGY DENSITIES (G,K) :  8.5472E-02  7.4146E-03
 VIRIAL DENSITY                 : -9.2886E-02
 ELF(PAA)                       :  1.5143E-01

 SPECTRAL DECOMP. OF THE HESSIAN OF RHO

 EIGENVALUES (L1 L2 L3)         : -1.1617E-01 -1.0516E-01  5.3356E-01
 EIGENVECTORS                   : -3.7383E-02  7.6746E-01  6.4001E-01
                                   9.9192E-01 -4.9205E-02  1.1694E-01
                                   1.2124E-01  6.3921E-01 -7.5942E-01

 ELLIPTICITY                    :  1.0467E-01

 CLUSTER OF ATOMS AROUND THE CP 
 NEW  OLD   CELL  AT. NU.         COORD.(AU)             DISTANCE (ANG)
     1      22       1     1     0    8       10.794  -0.521  14.277          1.050
     2       7       0     0     0   21       13.345  -0.097  11.265          1.051
     3      30       1     1     0    1       10.510  -2.278  14.675          1.661
     4      48       0     0     0    8       13.411  -4.186  11.756          2.226
     5      61       1     1     0    8       16.130   0.610  13.966          2.293
     6      45       0     0     0    8       12.856   3.902  11.016          2.460
     7      24       0     0     0    8       10.774  -0.200   8.282          2.474
     8       6       1     1     0   21       10.653   1.967  17.349          2.812
     9      32       0     0     0    1        9.504   1.113   8.239          2.860
    10      58       1     1     0    8       11.133   4.865  14.750          2.983

 ******************************
 SEARCH OF BOND PATH ATTRACTORS
 ******************************

 CP N.     21
**********

 ATTRACTOR CP TYPE              :  (3,-3)
 COORD(AU)  (X  Y  Z)           :  1.3345E+01 -9.7091E-02  1.1265E+01
 COORD FRACT. CONV. CELL        :  3.1216E-01  1.4458E-02  4.7948E-01
 PROPERTIES (RHO,GRHO,LAP)      :  5.8022E+03  3.6516E-06 -2.6884E+08
 TRAJECTORY LENGTH(ANG)         :  1.0513E+00
 INTEGRATION STEPS              :      52

 CLUSTER OF ATOMS AROUND THE TERMINUS OF THE PATH 
 NEW  OLD   CELL  AT. NU.         COORD.(AU)             DISTANCE (ANG)
     1       7       0     0     0   21       13.345  -0.097  11.265          0.000
     2      64       0     0     0    8       16.182  -0.760   8.624          2.081
     3      24       0     0     0    8       10.774  -0.200   8.282          2.085
     4      61       1     1     0    8       16.130   0.610  13.966          2.087


 ATTRACTOR CP TYPE              :  (3,-3)
 COORD(AU)  (X  Y  Z)           :  1.0794E+01 -5.2052E-01  1.4277E+01
 COORD FRACT. CONV. CELL        :  2.5206E-01  1.0692E-03 -3.9246E-01
[...]
     1      32       0     0     0    1        9.504   1.113   8.239          0.196
     2      24       0     0     0    8       10.774  -0.200   8.282          0.771
     3     131       0     0     0    8        5.701   1.863  10.210          2.446
     4       7       0     0     0   21       13.345  -0.097  11.265          2.529
     5       5       0     0     0   21       10.679  -3.141   5.667          2.560
     6      45       0     0     0    8       12.856   3.902  11.016          2.728
     7     129       0     0     0   16        5.831  -0.708  11.459          2.809
     8      41       0     0     0    8        6.620  -2.951   6.143          2.836
     9      29       0     0     0    1       11.597   0.823   2.705          3.089
    10      21       0     0     0    8       10.801  -0.802   2.502          3.211

 ******************************
 SEARCH OF BOND PATH ATTRACTORS
 ******************************

 ATTRACTOR CP TYPE              :  (3,-3)
 COORD(AU)  (X  Y  Z)           :  1.0774E+01 -1.9974E-01  8.2818E+00
 COORD FRACT. CONV. CELL        :  2.5184E-01  8.8819E-03  3.5256E-01
 PROPERTIES (RHO,GRHO,LAP)      :  3.0114E+02  1.3431E-09 -4.4990E+06
 TRAJECTORY LENGTH(ANG)         :  7.7089E-01
 INTEGRATION STEPS              :      48

 CLUSTER OF ATOMS AROUND THE TERMINUS OF THE PATH 
 NEW  OLD   CELL  AT. NU.         COORD.(AU)             DISTANCE (ANG)
     1      24       0     0     0    8       10.774  -0.200   8.282          0.000
     2      32       0     0     0    1        9.504   1.113   8.239          0.966
     3       5       0     0     0   21       10.679  -3.141   5.667          2.083
     4       7       0     0     0   21       13.345  -0.097  11.265          2.085


 ATTRACTOR CP TYPE              :  (3,-3)
 COORD(AU)  (X  Y  Z)           :  9.5356E+00  1.0807E+00  8.2400E+00
 COORD FRACT. CONV. CELL        :  2.2456E-01  3.7207E-02  3.5062E-01
 PROPERTIES (RHO,GRHO,LAP)      :  4.0639E-01  1.6383E-12 -2.2529E+01
 TRAJECTORY LENGTH(ANG)         :  1.7189E-01
 INTEGRATION STEPS              :      19

 CLUSTER OF ATOMS AROUND THE TERMINUS OF THE PATH 
 NEW  OLD   CELL  AT. NU.         COORD.(AU)             DISTANCE (ANG)
     1      32       0     0     0    1        9.504   1.113   8.239          0.024
     2      24       0     0     0    8       10.774  -0.200   8.282          0.943
     3     131       0     0     0    8        5.701   1.863  10.210          2.319
     4       7       0     0     0   21       13.345  -0.097  11.265          2.648


 BPL (ANG) ; RAB ; (BPL/RAB)    :  9.4278E-01  9.6648E-01  9.7548E-01

 CP N.     25
 *********

 CP TYPE                        :  (3,-1)
 COORD(AU)  (X  Y  Z)           :  1.0569E+01 -1.9133E+00  1.4593E+01
 COORD FRACT. CONV. CELL        :  2.4497E-01 -3.1804E-02 -3.7890E-01
 PROPERTIES (RHO,GRHO,LAP)      :  3.5269E-01  1.9032E-15 -2.3057E+00
 KINETIC ENERGY DENSITIES (G,K) :  7.4699E-02  6.5112E-01
 VIRIAL DENSITY                 : -7.2582E-01
 ELF(PAA)                       :  9.7863E-01

 SPECTRAL DECOMP. OF THE HESSIAN OF RHO

 EIGENVALUES (L1 L2 L3)         : -1.6354E+00 -1.6332E+00  9.6285E-01
 EIGENVECTORS                   : -4.9305E-01  8.5614E-01  1.5467E-01
                                   2.6711E-01 -2.0232E-02  9.6345E-01
                                   8.2798E-01  5.1635E-01 -2.1871E-01

 ELLIPTICITY                    :  1.3257E-03

 CLUSTER OF ATOMS AROUND THE CP 
 NEW  OLD   CELL  AT. NU.         COORD.(AU)             DISTANCE (ANG)
     1      30       1     1     0    1       10.510  -2.278  14.675          0.200
     2      22       1     1     0    8       10.794  -0.521  14.277          0.765
     3      48       0     0     0    8       13.411  -4.186  11.756          2.442
     4       7       0     0     0   21       13.345  -0.097  11.265          2.487
     5       6       1     1     0   21       10.653   1.967  17.349          2.519
     6      23       1     1     0    8       10.737  -0.773  20.184          3.021
     7      43       1     1     0    8        6.635   1.680  16.901          3.072
     8     129       0     0     0   16        5.831  -0.708  11.459          3.073
     9      80       0     0     0    6       12.472  -6.019  10.532          3.218
    10      61       1     1     0    8       16.130   0.610  13.966          3.249

 ******************************
 SEARCH OF BOND PATH ATTRACTORS
 ******************************

 ATTRACTOR CP TYPE              :  (3,-3)
 COORD(AU)  (X  Y  Z)           :  1.0794E+01 -5.2052E-01  1.4277E+01
 COORD FRACT. CONV. CELL        :  2.5206E-01  1.0692E-03 -3.9246E-01
 PROPERTIES (RHO,GRHO,LAP)      :  3.0120E+02  6.2030E-09 -4.5000E+06
 TRAJECTORY LENGTH(ANG)         :  7.6513E-01
 INTEGRATION STEPS              :      53

 CLUSTER OF ATOMS AROUND THE TERMINUS OF THE PATH 
 NEW  OLD   CELL  AT. NU.         COORD.(AU)             DISTANCE (ANG)
     1      22       1     1     0    8       10.794  -0.521  14.277          0.000
     2      30       1     1     0    1       10.510  -2.278  14.675          0.965
     3       6       1     1     0   21       10.653   1.967  17.349          2.093
     4       7       0     0     0   21       13.345  -0.097  11.265          2.101


 ATTRACTOR CP TYPE              :  (3,-3)
 COORD(AU)  (X  Y  Z)           :  1.0517E+01 -2.2354E+00  1.4666E+01
 COORD FRACT. CONV. CELL        :  2.4335E-01 -3.9404E-02 -3.7578E-01
 PROPERTIES (RHO,GRHO,LAP)      :  4.1292E-01  6.6398E-15 -2.2996E+01
 TRAJECTORY LENGTH(ANG)         :  1.7681E-01
 INTEGRATION STEPS              :      20

 CLUSTER OF ATOMS AROUND THE TERMINUS OF THE PATH 
 NEW  OLD   CELL  AT. NU.         COORD.(AU)             DISTANCE (ANG)
     1      30       1     1     0    1       10.510  -2.278  14.675          0.023
     2      22       1     1     0    8       10.794  -0.521  14.277          0.942
     3      48       0     0     0    8       13.411  -4.186  11.756          2.405
     4       7       0     0     0   21       13.345  -0.097  11.265          2.600


 BPL (ANG) ; RAB ; (BPL/RAB)    :  9.4195E-01  9.6515E-01  9.7596E-01

 CP N.     26
 *********

 CP TYPE                        :  (3,-1)
 COORD(AU)  (X  Y  Z)           :  6.1282E+00  4.7397E-01  1.4356E+01
 COORD FRACT. CONV. CELL        :  1.4426E-01  1.8242E-02 -3.8936E-01
 PROPERTIES (RHO,GRHO,LAP)      :  7.6229E-03  5.1445E-15  3.3344E-02
 KINETIC ENERGY DENSITIES (G,K) :  6.0635E-03 -2.2726E-03
 VIRIAL DENSITY                 : -3.7909E-03
 ELF(PAA)                       :  1.9173E-02

 SPECTRAL DECOMP. OF THE HESSIAN OF RHO

 EIGENVALUES (L1 L2 L3)         : -6.0968E-03 -4.8710E-03  4.4312E-02
 EIGENVECTORS                   :  3.9187E-01  9.0998E-01  1.3557E-01
                                  -8.5815E-01  3.0841E-01  4.1044E-01
                                   3.3168E-01 -2.7718E-01  9.0175E-01

 ELLIPTICITY                    :  2.5166E-01

 CLUSTER OF ATOMS AROUND THE CP 
 NEW  OLD   CELL  AT. NU.         COORD.(AU)             DISTANCE (ANG)
     1      43       1     1     0    8        6.635   1.680  16.901          1.514
     2     129       0     0     0   16        5.831  -0.708  11.459          1.663
     3     130       1     1     0    8        3.389  -1.655  12.586          2.061
     4      75       1     1     0    6        4.899   0.935  18.379          2.239
     5     131       0     0     0    8        5.701   1.863  10.210          2.325
     6     123       1     1     0    1        2.432   3.395  14.196          2.495
     7      22       1     1     0    8       10.794  -0.521  14.277          2.525
     8      30       1     1     0    1       10.510  -2.278  14.675          2.743
     9      91       1     1     0    6        2.276   1.571  17.829          2.805
    10     107       1     1     0    6        1.287   2.773  15.765          2.932

 ******************************
 SEARCH OF BOND PATH ATTRACTORS
 ******************************

 CP N.     27
**********

 ATTRACTOR CP TYPE              :  (3,-3)
 COORD(AU)  (X  Y  Z)           :  6.6354E+00  1.6804E+00  1.6901E+01
 COORD FRACT. CONV. CELL        :  1.5775E-01  4.6963E-02 -2.8126E-01
 PROPERTIES (RHO,GRHO,LAP)      :  3.0139E+02  1.3156E-09 -4.5030E+06
 TRAJECTORY LENGTH(ANG)         :  1.5155E+00
 INTEGRATION STEPS              :      69

 CLUSTER OF ATOMS AROUND THE TERMINUS OF THE PATH 
 NEW  OLD   CELL  AT. NU.         COORD.(AU)             DISTANCE (ANG)
     1      43       1     1     0    8        6.635   1.680  16.901          0.000
     2      75       1     1     0    6        4.899   0.935  18.379          1.270
     3       6       1     1     0   21       10.653   1.967  17.349          2.145
     4      63       1     1     0    8        5.326  -0.329  20.381          2.237


 ATTRACTOR CP TYPE              :  (3,-3)
 COORD(AU)  (X  Y  Z)           :  5.8310E+00 -7.0799E-01  1.1459E+01
 COORD FRACT. CONV. CELL        :  1.3570E-01 -9.6131E-03  4.8756E-01
 PROPERTIES (RHO,GRHO,LAP)      :  2.5714E+03  2.5847E-08 -1.1473E+08
 TRAJECTORY LENGTH(ANG)         :  1.6658E+00
 INTEGRATION STEPS              :      61

 CLUSTER OF ATOMS AROUND THE TERMINUS OF THE PATH 
 NEW  OLD   CELL  AT. NU.         COORD.(AU)             DISTANCE (ANG)
     1     129       0     0     0   16        5.831  -0.708  11.459          0.000
     2     130       1     1     0    8        3.389  -1.655  12.586          1.509
     3     131       0     0     0    8        5.701   1.863  10.210          1.514
     4      32       0     0     0    1        9.504   1.113   8.239          2.759


 BPL (ANG) ; RAB ; (BPL/RAB)    :  3.1813E+00  3.1733E+00  1.0025E+00


 NUMBER OF ATOM PAIRS INVESTIGATED:    36
 NUMBER OF UNIQUE CRI. POINT FOUND:    27


        ********** C R I T I C A L  P O I N T S  F O U N D **********


 CP N.  X(ANG)  Y(ANG)  Z(ANG)  TYPE      RHO    LAPL    L1(V1)  L2(V2)  L3(V3) ELLIP

 ************************************************************************************
    1)  3.086  -0.375   6.064  (3,-3)  999.999-999.999-999.999-999.999-999.999
                                                         0.245  -0.457   0.855
                                                         0.434  -0.737  -0.518
                                                         0.867   0.498   0.018


    2)  1.794  -0.876   6.660  (3,-3)  302.192-999.999-999.999-999.999-999.999
                                                         0.347  -0.728   0.591
                                                         0.499  -0.390  -0.774
                                                         0.794   0.563   0.228


    3)  3.017   0.986   5.403  (3,-3)  302.148-999.999-999.999-999.999-999.999
                                                         0.147  -0.203   0.968
                                                        -0.113  -0.976  -0.188
                                                         0.983  -0.082  -0.167


    4)  5.046   0.572   4.360  (3,-3)    0.406 -22.529  -7.972  -7.971  -6.586
                                                        -0.658  -0.290   0.695
                                                        -0.648  -0.252  -0.719
                                                        -0.383   0.923   0.022


    5)  5.712  -0.275   7.555  (3,-3)  301.197-999.999-999.999-999.999-999.999
                                                         0.203   0.324  -0.924
                                                         0.953  -0.283   0.110
                                                        -0.226  -0.903  -0.366


    6)  3.503  -1.562   3.251  (3,-3)  301.403-999.999-999.999-999.999-999.999
                                                        -0.782  -0.077   0.618
                                                         0.249  -0.948   0.198
                                                        -0.571  -0.309  -0.761


    7)  5.565  -1.183   7.761  (3,-3)    0.413 -22.996  -8.122  -8.121  -6.754
                                                        -0.725  -0.672   0.154
                                                         0.259  -0.059   0.964
                                                         0.638  -0.739  -0.217


    8)  5.701  -0.106   4.383  (3,-3)  301.137-999.999-999.999-999.999-999.999
                                                         0.683  -0.335   0.650
                                                        -0.729  -0.365   0.579
                                                         0.043  -0.869  -0.493


    9)  1.278   1.792   7.524  (3,-3)    0.440 -26.220  -8.999  -8.993  -8.228
                                                         0.816   0.120   0.566
                                                        -0.339   0.892   0.300
                                                         0.468   0.436  -0.768


   10)  1.192  -2.457   4.599  (3,-3)    0.442 -26.368  -9.047  -9.040  -8.281
                                                        -0.832   0.179   0.525
                                                        -0.192   0.795  -0.575
                                                         0.521   0.579   0.627


   11)  2.559  -0.570   6.304  (3,-1)    0.233   0.740  -0.346  -0.297   1.383  0.163

       ( S   129       0      0      0   1.155  ANG)    -0.449  -0.234   0.862
       ( O   130       1      1      0   1.696  ANG)     0.842  -0.433   0.321
                                                        -0.298  -0.870  -0.392


   12)  3.054   0.177   5.797  (3,-1)    0.230   0.700  -0.338  -0.292   1.330  0.160

       ( S   129       0      0      0   1.160  ANG)     0.971  -0.231   0.056
       ( O   131       0      0      0   1.702  ANG)    -0.052  -0.435  -0.899
                                                        -0.232  -0.870   0.435


   13)  4.490  -0.358   6.847  (3,-1)    0.013   0.050  -0.013  -0.012   0.074  0.061

       ( O    22       1      1      0   2.676  ANG)    -0.160   0.471   0.867
       ( S   129       0      0      0   3.055  ANG)    -0.897  -0.437   0.072
                                                         0.413  -0.766   0.492


   14)  3.287  -1.008   4.582  (3,-1)    0.010   0.041  -0.009  -0.008   0.059  0.097

       ( O    41       0      0      0   2.758  ANG)    -0.985   0.135   0.105
       ( S   129       0      0      0   3.082  ANG)    -0.165  -0.913  -0.374
                                                        -0.046   0.386  -0.921


   15)  4.285   0.598   4.841  (3,-1)    0.013   0.048  -0.013  -0.010   0.071  0.286

       ( H    32       0      0      0   1.769  ANG)    -0.481   0.014   0.877
       ( O   131       0      0      0   2.725  ANG)    -0.424  -0.879  -0.218
                                                        -0.768   0.476  -0.429


   16)  1.397  -1.526   5.376  (3,-1)    0.008   0.030  -0.007  -0.004   0.041  0.563

       ( H   121       0      0      0   2.750  ANG)    -0.854  -0.399   0.334
       ( O   130       1      1      0   2.825  ANG)    -0.216   0.856   0.470
                                                         0.473  -0.329   0.817


   17)  1.318   0.310   7.463  (3,-1)    0.008   0.027  -0.006  -0.003   0.037  0.947

       ( O   130       1      1      0   2.856  ANG)    -0.934  -0.102   0.343
       ( C   107       1      1      0   3.042  ANG)    -0.211  -0.619  -0.757
                                                        -0.289   0.779  -0.556


   18)  0.681   1.467   8.342  (3,-3)  121.989-999.999-999.999-999.999-999.999
                                                         0.107   0.910  -0.401
                                                         0.897  -0.263  -0.356
                                                         0.429   0.321   0.844


   19)  1.985   1.348   6.669  (3,-1)    0.004   0.015  -0.003  -0.002   0.021  0.402

       ( H   123       1      1      0   2.274  ANG)    -0.782  -0.128   0.609
       ( O   131       0      0      0   3.170  ANG)    -0.068  -0.955  -0.287
                                                        -0.619   0.266  -0.739


   20)  6.388  -0.175   6.758  (3,-1)    0.072   0.312  -0.116  -0.105   0.534  0.105

       ( O    22       1      1      0   1.984  ANG)    -0.037   0.767   0.640
       ( SC    7       0      0      0   1.987  ANG)     0.992  -0.049   0.117
                                                         0.121   0.639  -0.759


   21)  7.062  -0.051   5.961  (3,-3)  999.999-999.999-999.999-999.999-999.999
                                                         0.146   0.983   0.113
                                                         0.971  -0.164   0.173
                                                        -0.189  -0.084   0.978


   22)  4.576  -1.600   3.085  (3,-1)    0.059   0.267  -0.089  -0.087   0.443  0.019

       ( SC    5       0      0      0   2.041  ANG)    -0.095  -0.060   0.994
       ( O    41       0      0      0   2.056  ANG)     0.043  -0.998  -0.056
                                                        -0.995  -0.038  -0.098


   23)  5.651  -1.662   2.999  (3,-3)  999.999-999.999-999.999-999.999-999.999
                                                         0.979   0.138   0.151
                                                        -0.165   0.969   0.184
                                                        -0.120  -0.205   0.971


   24)  5.165   0.448   4.364  (3,-1)    0.349  -2.325  -1.649  -1.647   0.972  0.001

       ( H    32       0      0      0   0.325  ANG)     0.484  -0.532   0.695
       ( O    24       0      0      0   1.457  ANG)     0.491  -0.492  -0.719
                                                         0.724   0.689   0.023


   25)  5.593  -1.012   7.722  (3,-1)    0.353  -2.306  -1.635  -1.633   0.963  0.001

       ( H    30       1      1      0   0.334  ANG)    -0.493   0.856   0.155
       ( O    22       1      1      0   1.446  ANG)     0.267  -0.020   0.963
                                                         0.828   0.516  -0.219


   26)  3.243   0.251   7.597  (3,-1)    0.008   0.033  -0.006  -0.005   0.044  0.252

       ( O    43       1      1      0   2.864  ANG)     0.392   0.910   0.136
       ( S   129       0      0      0   3.148  ANG)    -0.858   0.308   0.410
                                                         0.332  -0.277   0.902


   27)  3.511   0.889   8.944  (3,-3)  301.391-999.999-999.999-999.999-999.999
                                                         0.798  -0.061   0.599
                                                         0.303  -0.819  -0.487
                                                        -0.520  -0.570   0.636


 ************************************************************************************
 TTTTTTTTTTTTTTTTTTTTTTTTTTTTTT TRHO        TELAPSE      710.97 TCPU      617.96
 TTTTTTTTTTTTTTTTTTTTTTTTTTTTTT END         TELAPSE      710.97 TCPU      617.96
 EEEEEEEEEE TERMINATION  DATE 24 07 2025 TIME 09:47:53.5
NODE    0 CPU TIME =       617.957
NODE    1 CPU TIME =       618.443
NODE    2 CPU TIME =       618.246
NODE    3 CPU TIME =       618.130
NODE    4 CPU TIME =       618.472
NODE    5 CPU TIME =       618.017
NODE    6 CPU TIME =       618.990
NODE    7 CPU TIME =       617.961
    TOTAL CPU TIME =      4946.216
Note: The following floating-point exceptions are signalling: IEEE_UNDERFLOW_FLAG
Note: The following floating-point exceptions are signalling: IEEE_UNDERFLOW_FLAG
Note: The following floating-point exceptions are signalling: IEEE_UNDERFLOW_FLAG
Note: The following floating-point exceptions are signalling: IEEE_UNDERFLOW_FLAG
Note: The following floating-point exceptions are signalling: IEEE_UNDERFLOW_FLAG
Note: The following floating-point exceptions are signalling: IEEE_UNDERFLOW_FLAG
Note: The following floating-point exceptions are signalling: IEEE_UNDERFLOW_FLAG
Note: The following floating-point exceptions are signalling: IEEE_UNDERFLOW_FLAG
