
         
 *******************************************************************************
 *                                                                             *
 *                               CRYSTAL17                                     *
 *                      public : 1.0.1 - Feb 1st, 2017                         *
 *                       HTTP://WWW.CRYSTAL.UNITO.IT                           *
 *                                                                             *
 *                              MAIN AUTHORS                                   *
 *                                                                             *
 *  R. DOVESI(1,11), V.R. SAUNDERS(2), C. ROETTI(1,11), R. ORLANDO(1,11),      *
 *  C.M. ZICOVICH-WILSON(1,3), F. PASCALE(4), B. CIVALLERI(1,11),              *
 *  K. DOLL(5), N.M. HARRISON(2,6), I.J. BUSH(7), Ph. D'ARCO(8),               *
 *  M. LLUNELL(9), M. CAUSA'(10), Y. NOEL(8), L. MASCHIO(1,11), A. ERBA(1,11)  *
 *  M. RE'RAT(14), S. CASASSA(1,11)                                            *
 *                                                                             *
 *        CONTRIBUTIONS TO THE CODE HAVE ALSO BEEN GIVEN BY                    *
 *                                                                             *
 *  M. FERRABONE(1,11), M. DE LA PIERRE(1,11), M. FERRERO(1,11),               *
 *  J. BAIMA(1,11), E. ALBANESE(1,11), M.F. PEINTINGER(12), R. BAST(13),       *
 *  B. KIRTMAN(15), V. LACIVITA(1,11), R. DEMICHELIS(1,16)                     *
 *  G. BRANDEBURG(17), S. SALUSTRO(1,11), G. SANSONE(1,11)                     *
 *  M.T. RUGGIERO(18)                                                          *
 *                                                                             *
 * (1) THEORETICAL CHEMISTRY GROUP - UNIVERSITA' DI TORINO - TORINO (ITALY)    *

 * (2) COMPUTATIONAL SCIENCE & ENGINEERING DEPARTMENT - STFC DARESBURY (UK)    *
 * (3) UNIVERSIDAD AUTONOMA DEL ESTADO DE MORELOS - CUERNAVACA (MEXICO)        *
 * (4) UNIVERSITE' DE LORRAINE - NANCY (FRANCE)                                *
 * (5) UNIVERSITAET STUTTGART- STUTTGART (GERMANY)                             *
 * (6) IMPERIAL COLLEGE - LONDON (UK)                                          *
 * (7) OXFORD E-RESEARCH CENTRE - OXFORD (UK)                                  *
 * (8) UPMC - SORBONNE UNIVERSITES - PARIS (FRANCE)                            *
 * (9) UNIVERSIDAD DE BARCELONA - BARCELONA (SPAIN)                            *
 *(10) UNIVERSITA' DI NAPOLI "FEDERICO II" - NAPOLI (ITALY)                    *
 *(11) NIS - NANOSTRUCTURED INTERFACES AND SURFACES - TORINO (ITALY)           *
 *(12) MPI FUER CHEMISCHE ENERGIEKONVERSION - MUELHEIM AN DER RUHR (GERMANY)   *
 *(13) UNIVERSITY OF TROMSO - TROMSO (NORWAY)                                  *
 *(14) UNIVERSITE' DE PAU ET DES PAYS DE L'ADOUR - PAU (FRANCE)                *
 *(15) UNIVERSITY OF CALIFORNIA SANTA BARBARA - SANTA BARBARA (USA)            *
 *(16) CURTIN UNIVERSITY - PERTH (AUSTRALIA)                                   *
 *(17) UNIVERSITY COLLEGE LONDON - LONDON (UK)                                 *
 *(18) CAMBRIDGE UNIVERSITY - CAMBRIDGE (UK)                                   *
 *                                                                             *
 *******************************************************************************
 EEEEEEEEEE STARTING  DATE 24 02 2025 TIME 17:26:31.3
 INFORMATION **** SET_MPP **** PCRYSTAL CALCULATION

 *******************************************************************************
 TEST12 - UREA BULK BASE 6-21 + POLARIZATION                                     
 CRYSTAL - PROPERTIES - TYPE OF CALCULATION :  RESTRICTED CLOSED SHELL
 *******************************************************************************
 HARTREE-FOCK HAMILTONIAN
 *******************************************************************************
 N. OF ATOMS PER CELL         8 COULOMB OVERLAP TOL          (T1) 10**   -6
 NUMBER OF SHELLS            28 COULOMB PENETRATION TOL      (T2) 10**   -6
 NUMBER OF AO                76 EXCHANGE OVERLAP TOL         (T3) 10**   -6
 N. OF ELECTRONS PER CELL    32 EXCHANGE PSEUDO OVP (F(G))   (T4) 10**   -6
 CORE ELECTRONS PER CELL      8 EXCHANGE PSEUDO OVP (P(G))   (T5) 10**  -12
 N. OF SYMMETRY OPERATORS     4 POLE ORDER IN MONO ZONE                   4
 *******************************************************************************
   ATOM N.AT.  SHELL    X(A)      Y(A)      Z(A)      EXAD       N.ELECT.
 *******************************************************************************
    1    6 C     4     0.000     0.000     0.000   8.000E-01       4.821
    2    8 O     4     0.000     0.000     1.261   8.000E-01       8.735
    3    7 N     4     0.000     1.148    -0.700   8.000E-01       7.716
    4    7 N     4     0.000    -1.148    -0.700   8.000E-01       7.716
    5    1 H     3     0.000     2.027    -0.203   1.100E+00       0.734
    6    1 H     3     0.000    -2.027    -0.203   1.100E+00       0.734
    7    1 H     3     0.000     1.134    -1.705   1.100E+00       0.772
    8    1 H     3     0.000    -1.134    -1.705   1.100E+00       0.772
 *******************************************************************************
 DE(K)                   0.000E+00  ENERGY LEVEL SHIFTING        0.00000
 TOTAL ENERGY -2.2378754820639E+02  CONVERGENCE ON ENER       -1.380E-08
 KIN. ENERGY   2.2350030204452E+02  VIR. COEFF.           9.99357805E-01
 N. OF SCF CYCLES               10  FERMI ENERGY              -0.367E+00
 WEIGHT OF F(I) IN F(I+1)      30
 *******************************************************************************
 TTTTTTTTTTTTTTTTTTTTTTTTTTTTTT gordsh1     TELAPSE        0.18 TCPU        0.17

 MATRIX SIZE: P(G)    5716, F(G)    2651, P(G) IRR    1758, F(G) IRR    1635
 MAX G-VECTOR INDEX FOR 1- AND 2-ELECTRON INTEGRALS   1


 CAPPA:IS1  1;IS2  1;IS3  1; K PTS MONK NET   1; SYMMOPS:K SPACE   8;G SPACE   4

 *******************************************************************************
 *                                                                             *
 *                              T O P O N D  2 0 1 3                           *
 *                                                                             *
 *           AN ELECTRON DENSITY TOPOLOGICAL ANALYSIS PROGRAM FOR              *
 *                 SYSTEMS PERIODIC IN N (N=0-3) DIMENSIONS                    *
 *                                                                             *
 *               USER MANUAL BY CARLO GATTI AND SILVIA CASASSA                 *
 *                                                                             *
 *            CNR-ISTM, ISTITUTO DI SCIENZE E TECNOLOGIE MOLECOLARI            *
 *                   VIA GOLGI 19  - I-20133 MILANO - ITALIA                   *
 *                     E-MAIL: c.gatti@istm.cnr.it                             *
 *                                                                             *
 *******************************************************************************

  TOPOND PARAMETER 

  LIM016 [INF24]        =       1000
  LIM015 [INF20]        =         28
  LIM035 [LIM016*INF5]  =       1000
  NTOMAX [LIM016*INF5]  =       8009
  INF79  [INF79]        =          8
  MAXGSTAR [INF2*INF5]  =          8

 *******************************************************************************

CRYSTAL INFORMATION ON THE REFERENCE SYSTEM:

 *******************************************************************************
 N. OF ATOMS PER CELL        8  COULOMB OVERLAP TOL         (T1) 10** -6
 NUMBER OF SHELLS           28  COULOMB PENETRATION TOL     (T2) 10** -6
 NUMBER OF AO               76  EXCHANGE OVERLAP TOL        (T3) 10** -6
 N. OF ELECTRONS PER CELL    32 EXCHANGE PSEUDO OVP (F(G))  (T4) 10** -6
 CORE ELECTRONS PER CELL     8  EXCHANGE PSEUDO OVP (P(G))  (T5) 10**-12
 N. OF SYMMETRY OPERATORS    4  POLE ORDER IN MONO ZONE                4
 *******************************************************************************
  ATOM  SHEL    X(AU)     Y(AU)     Z(AU)
 *******************************************************************************
    6 C    4     0.000     0.000     0.000
    8 O    4     0.000     0.000     2.384
    7 N    4     0.000     2.170    -1.322
    7 N    4     0.000    -2.170    -1.322
    1 H    3     0.000     3.830    -0.383
    1 H    3     0.000    -3.830    -0.383
    1 H    3     0.000     2.143    -3.222
    1 H    3     0.000    -2.143    -3.222
 *******************************************************************************
 DE(K)                  0.000E+00  CONVERGENCE ON EIGENVALUES   10**-17
 WEIGHT OF F(I) IN F(I+1)     30%  CONVERGENCE ON ENERGY        10**- 7
 TOTAL ENERGY     -2.23787548E+02  FERMI ENERGY              -3.672E-01
 KIN. ENERGY       2.23500302E+02  VIR. COEFF.           9.99357805E-01
 *******************************************************************************

 CLUSTER OF ATOMS AROUND THE SEED POINT OR NUCLEUS 
 NEW  OLD   AT. NU.         COORD.(AU)             DISTANCE (ANG)
     1       2       8        0.000   0.000   2.384          0.000
     2       1       6        0.000   0.000   0.000          1.262
     3       4       7        0.000  -2.170  -1.322          2.273
     4       3       7        0.000   2.170  -1.322          2.273
     5       6       1        0.000  -3.830  -0.383          2.500
     6       5       1        0.000   3.830  -0.383          2.500
     7       8       1        0.000  -2.143  -3.222          3.176
     8       7       1        0.000   2.143  -3.222          3.176

 UNIQUE ATOMS AROUND THE SEED POINT OR NUCLEUS
  NEW   OLD          COORD.(AU)           DISTANCE (ANG)
     1 O     2     0.000   0.000   2.384          0.000
     2 C     1     0.000   0.000   0.000          1.262
     3 N     4     0.000  -2.170  -1.322          2.273
     4 H     6     0.000  -3.830  -0.383          2.500
     5 H     8     0.000  -2.143  -3.222          3.176

 ATOM PAIRS CONSIDERED AROUND THE SEED POINT OR NUCLEUS
   PAIR  ATOM I  ATOM J     DISTANCE (ANG)
        1    O      2   C      1        1.261
        2    O      2   N      4        2.273
        3    O      2   H      6        2.500
        4    O      2   H      8        3.176
        5    C      1   N      4        1.345
        6    C      1   H      6        2.037
        7    C      1   H      8        2.048
        8    N      4   N      3        2.296
        9    N      4   H      6        1.009
       10    N      4   H      5        3.213
       11    N      4   H      8        1.005
       12    N      4   H      7        2.494
       13    H      6   H      5        4.053
       14    H      6   H      8        1.747
       15    H      6   H      7        3.499
       16    H      8   H      7        2.268


 ************* T O P O L O G I C A L  A N A L I S Y S  O F  R H O *************


 COMPUTATIONAL CONDITIONS :
                           IAUTO                                     :    -2
                           ALGORITHM FOR CP SEARCH                   :    EF
                           DETERMINATION OF BOND PATH ATTRACTORS     :     T
                           MAX.NUM. OF N.R. OR EIG. FOL. STEPS       :    20
                           NEIGHBORS OF EACH NON-EQUIVALENT ATOM     :    10
                           THRESHOLD ON INTERNUC. DISTANCES (ANG)    :   5.0
                           PRINT N.RAPH OR E.FOL. OR PAR. EQ. SEARCH :     F
                           TOTAL NUMBER OF PAIRS CONSIDERED          :    16


 ********************
 SEARCH OF (3,-3) CPS
 ********************

 CP N.      1
 *********

 CP TYPE                        :  (3,-3)
 COORD(AU)  (X  Y  Z)           :  0.0000E+00  4.5520E-24  2.3837E+00
 PROPERTIES (RHO,GRHO,LAP)      :  2.9174E+02  1.0591E-10 -1.9281E+06
 KINETIC ENERGY DENSITIES (G,K) :  2.9647E+01  4.8206E+05
 VIRIAL DENSITY                 : -4.8208E+05
 ELF(PAA)                       :  1.0000E+00

 SPECTRAL DECOMP. OF THE HESSIAN OF RHO

 EIGENVALUES (L1 L2 L3)         : -6.4271E+05 -6.4270E+05 -6.4269E+05
 EIGENVECTORS                   :  0.0000E+00  1.0000E+00  0.0000E+00
                                   0.0000E+00  0.0000E+00  1.0000E+00
                                   1.0000E+00  0.0000E+00  0.0000E+00


 CLUSTER OF ATOMS AROUND THE CP 
 NEW  OLD   AT. NU.         COORD.(AU)             DISTANCE (ANG)
     1       2       8        0.000   0.000   2.384          0.000
     2       1       6        0.000   0.000   0.000          1.261
     3       4       7        0.000  -2.170  -1.322          2.273
     4       3       7        0.000   2.170  -1.322          2.273
     5       6       1        0.000  -3.830  -0.383          2.500
     6       5       1        0.000   3.830  -0.383          2.500
     7       8       1        0.000  -2.143  -3.222          3.176
     8       7       1        0.000   2.143  -3.222          3.176

 CP N.      2
 *********

 CP TYPE                        :  (3,-3)
 COORD(AU)  (X  Y  Z)           :  0.0000E+00  2.9957E-22 -2.2023E-06
 PROPERTIES (RHO,GRHO,LAP)      :  1.1793E+02  2.3623E-09 -4.3477E+05
 KINETIC ENERGY DENSITIES (G,K) :  3.0282E+00  1.0869E+05
 VIRIAL DENSITY                 : -1.0870E+05
 ELF(PAA)                       :  1.0000E+00

 SPECTRAL DECOMP. OF THE HESSIAN OF RHO

 EIGENVALUES (L1 L2 L3)         : -1.4492E+05 -1.4492E+05 -1.4492E+05
 EIGENVECTORS                   :  1.0000E+00  0.0000E+00  0.0000E+00
                                   0.0000E+00  1.0000E+00  0.0000E+00
                                   0.0000E+00  0.0000E+00  1.0000E+00


 CLUSTER OF ATOMS AROUND THE CP 
 NEW  OLD   AT. NU.         COORD.(AU)             DISTANCE (ANG)
     1       1       6        0.000   0.000   0.000          0.000
     2       2       8        0.000   0.000   2.384          1.261
     3       4       7        0.000  -2.170  -1.322          1.345
     4       3       7        0.000   2.170  -1.322          1.345
     5       6       1        0.000  -3.830  -0.383          2.037
     6       5       1        0.000   3.830  -0.383          2.037
     7       8       1        0.000  -2.143  -3.222          2.048
     8       7       1        0.000   2.143  -3.222          2.048

 CP N.      3
 *********

 CP TYPE                        :  (3,-3)
 COORD(AU)  (X  Y  Z)           :  0.0000E+00 -2.1699E+00 -1.3224E+00
 PROPERTIES (RHO,GRHO,LAP)      :  1.9124E+02  8.5002E-10 -9.6252E+05
 KINETIC ENERGY DENSITIES (G,K) :  1.1419E+01  2.4064E+05
 VIRIAL DENSITY                 : -2.4065E+05
 ELF(PAA)                       :  1.0000E+00

 SPECTRAL DECOMP. OF THE HESSIAN OF RHO

 EIGENVALUES (L1 L2 L3)         : -3.2084E+05 -3.2084E+05 -3.2083E+05
 EIGENVECTORS                   :  0.0000E+00  0.0000E+00  1.0000E+00
                                  -4.1760E-01  9.0863E-01  0.0000E+00
                                   9.0863E-01  4.1760E-01  0.0000E+00


 CLUSTER OF ATOMS AROUND THE CP 
 NEW  OLD   AT. NU.         COORD.(AU)             DISTANCE (ANG)
     1       4       7        0.000  -2.170  -1.322          0.000
     2       8       1        0.000  -2.143  -3.222          1.005
     3       6       1        0.000  -3.830  -0.383          1.009
     4       1       6        0.000   0.000   0.000          1.345
     5       2       8        0.000   0.000   2.384          2.273
     6       3       7        0.000   2.170  -1.322          2.296
     7       7       1        0.000   2.143  -3.222          2.494
     8       5       1        0.000   3.830  -0.383          3.213

 CP N.      4
 *********

 CP TYPE                        :  (3,-3)
 COORD(AU)  (X  Y  Z)           :  0.0000E+00 -3.6894E+00 -4.6486E-01
 PROPERTIES (RHO,GRHO,LAP)      :  3.6819E-01  5.9273E-09 -6.4947E+00
 KINETIC ENERGY DENSITIES (G,K) :  2.1584E-02  1.6453E+00
 VIRIAL DENSITY                 : -1.6669E+00
 ELF(PAA)                       :  9.9842E-01

 SPECTRAL DECOMP. OF THE HESSIAN OF RHO

 EIGENVALUES (L1 L2 L3)         : -2.5509E+00 -2.5082E+00 -1.4356E+00
 EIGENVECTORS                   :  0.0000E+00  1.0000E+00  0.0000E+00
                                   4.9632E-01  0.0000E+00  8.6814E-01
                                   8.6814E-01  0.0000E+00 -4.9632E-01


 CLUSTER OF ATOMS AROUND THE CP 
 NEW  OLD   AT. NU.         COORD.(AU)             DISTANCE (ANG)
     1       6       1        0.000  -3.830  -0.383          0.086
     2       4       7        0.000  -2.170  -1.322          0.923
     3       8       1        0.000  -2.143  -3.222          1.673
     4       1       6        0.000   0.000   0.000          1.968
     5       2       8        0.000   0.000   2.384          2.467
     6       3       7        0.000   2.170  -1.322          3.134
     7       7       1        0.000   2.143  -3.222          3.414
     8       5       1        0.000   3.830  -0.383          3.979

 CP N.      5
 *********

 CP TYPE                        :  (3,-3)
 COORD(AU)  (X  Y  Z)           :  0.0000E+00 -2.1444E+00 -3.0678E+00
 PROPERTIES (RHO,GRHO,LAP)      :  3.7918E-01  2.1173E-15 -6.8397E+00
 KINETIC ENERGY DENSITIES (G,K) :  2.3193E-02  1.7331E+00
 VIRIAL DENSITY                 : -1.7563E+00
 ELF(PAA)                       :  9.9835E-01

 SPECTRAL DECOMP. OF THE HESSIAN OF RHO

 EIGENVALUES (L1 L2 L3)         : -2.6572E+00 -2.6145E+00 -1.5680E+00
 EIGENVECTORS                   :  0.0000E+00 -1.0000E+00  0.0000E+00
                                  -9.9994E-01  0.0000E+00 -1.1088E-02
                                  -1.1088E-02  0.0000E+00  9.9994E-01


 CLUSTER OF ATOMS AROUND THE CP 
 NEW  OLD   AT. NU.         COORD.(AU)             DISTANCE (ANG)
     1       8       1        0.000  -2.143  -3.222          0.082
     2       4       7        0.000  -2.170  -1.322          0.924
     3       6       1        0.000  -3.830  -0.383          1.677
     4       1       6        0.000   0.000   0.000          1.981
     5       7       1        0.000   2.143  -3.222          2.270
     6       3       7        0.000   2.170  -1.322          2.463
     7       2       8        0.000   0.000   2.384          3.100
     8       5       1        0.000   3.830  -0.383          3.466


 ********************
 SEARCH OF (3,-1) CPS
 ********************

 CP N.      6
 *********

 CP TYPE                        :  (3,-1)
 COORD(AU)  (X  Y  Z)           :  0.0000E+00  3.9475E-18  8.3094E-01
 PROPERTIES (RHO,GRHO,LAP)      :  3.8362E-01  1.0193E-16 -6.6445E-01
 KINETIC ENERGY DENSITIES (G,K) :  4.1701E-01  5.8312E-01
 VIRIAL DENSITY                 : -1.0001E+00
 ELF(PAA)                       :  6.6040E-01

 SPECTRAL DECOMP. OF THE HESSIAN OF RHO

 EIGENVALUES (L1 L2 L3)         : -1.0085E+00 -8.9598E-01  1.2400E+00
 EIGENVECTORS                   :  0.0000E+00  1.0000E+00  0.0000E+00
                                   1.0000E+00  0.0000E+00  0.0000E+00
                                   0.0000E+00  0.0000E+00  1.0000E+00

 ELLIPTICITY                    :  1.2561E-01

 CLUSTER OF ATOMS AROUND THE CP 
 NEW  OLD   AT. NU.         COORD.(AU)             DISTANCE (ANG)
     1       1       6        0.000   0.000   0.000          0.440
     2       2       8        0.000   0.000   2.384          0.822
     3       4       7        0.000  -2.170  -1.322          1.618
     4       3       7        0.000   2.170  -1.322          1.618
     5       6       1        0.000  -3.830  -0.383          2.126
     6       5       1        0.000   3.830  -0.383          2.126
     7       8       1        0.000  -2.143  -3.222          2.426
     8       7       1        0.000   2.143  -3.222          2.426

 ******************************
 SEARCH OF BOND PATH ATTRACTORS
 ******************************

 ATTRACTOR CP TYPE              :  (3,-3)
 COORD(AU)  (X  Y  Z)           :  0.0000E+00  2.4322E-23  2.3837E+00
 PROPERTIES (RHO,GRHO,LAP)      :  2.9174E+02  1.0591E-10 -1.9281E+06
 TRAJECTORY LENGTH(ANG)         :  8.2168E-01
 INTEGRATION STEPS              :      53

 CLUSTER OF ATOMS AROUND THE TERMINUS OF THE PATH 
 NEW  OLD   AT. NU.         COORD.(AU)             DISTANCE (ANG)
     1       2       8        0.000   0.000   2.384          0.000
     2       1       6        0.000   0.000   0.000          1.261
     3       4       7        0.000  -2.170  -1.322          2.273
     4       3       7        0.000   2.170  -1.322          2.273


 ATTRACTOR CP TYPE              :  (3,-3)
 COORD(AU)  (X  Y  Z)           :  0.0000E+00 -3.5392E-23 -2.2023E-06
 PROPERTIES (RHO,GRHO,LAP)      :  1.1793E+02  4.1754E-14 -4.3477E+05
 TRAJECTORY LENGTH(ANG)         :  4.3972E-01
 INTEGRATION STEPS              :      49

 CLUSTER OF ATOMS AROUND THE TERMINUS OF THE PATH 
 NEW  OLD   AT. NU.         COORD.(AU)             DISTANCE (ANG)
     1       1       6        0.000   0.000   0.000          0.000
     2       2       8        0.000   0.000   2.384          1.261
     3       4       7        0.000  -2.170  -1.322          1.345
     4       3       7        0.000   2.170  -1.322          1.345


 BPL (ANG) ; RAB ; (BPL/RAB)    :  1.2614E+00  1.2614E+00  1.0000E+00

 CP N.      7
 *********

 CP TYPE                        :  (3,-1)
 COORD(AU)  (X  Y  Z)           :  0.0000E+00 -7.3849E-01 -4.7245E-01
 PROPERTIES (RHO,GRHO,LAP)      :  3.3362E-01  7.8845E-14 -8.2583E-01
 KINETIC ENERGY DENSITIES (G,K) :  2.7049E-01  4.7695E-01
 VIRIAL DENSITY                 : -7.4743E-01
 ELF(PAA)                       :  7.4371E-01

 SPECTRAL DECOMP. OF THE HESSIAN OF RHO

 EIGENVALUES (L1 L2 L3)         : -8.5906E-01 -7.8330E-01  8.1653E-01
 EIGENVECTORS                   :  0.0000E+00  1.0000E+00  0.0000E+00
                                  -5.1993E-01  0.0000E+00  8.5421E-01
                                   8.5421E-01  0.0000E+00  5.1993E-01

 ELLIPTICITY                    :  9.6724E-02

 CLUSTER OF ATOMS AROUND THE CP 
 NEW  OLD   AT. NU.         COORD.(AU)             DISTANCE (ANG)
     1       1       6        0.000   0.000   0.000          0.464
     2       4       7        0.000  -2.170  -1.322          0.881
     3       2       8        0.000   0.000   2.384          1.561
     4       3       7        0.000   2.170  -1.322          1.603
     5       8       1        0.000  -2.143  -3.222          1.634
     6       6       1        0.000  -3.830  -0.383          1.636
     7       7       1        0.000   2.143  -3.222          2.108
     8       5       1        0.000   3.830  -0.383          2.418

 ******************************
 SEARCH OF BOND PATH ATTRACTORS
 ******************************

 ATTRACTOR CP TYPE              :  (3,-3)
 COORD(AU)  (X  Y  Z)           :  0.0000E+00  1.0041E-18 -2.2023E-06
 PROPERTIES (RHO,GRHO,LAP)      :  1.1793E+02  3.1864E-13 -4.3477E+05
 TRAJECTORY LENGTH(ANG)         :  4.6395E-01
 INTEGRATION STEPS              :      48

 CLUSTER OF ATOMS AROUND THE TERMINUS OF THE PATH 
 NEW  OLD   AT. NU.         COORD.(AU)             DISTANCE (ANG)
     1       1       6        0.000   0.000   0.000          0.000
     2       2       8        0.000   0.000   2.384          1.261
     3       4       7        0.000  -2.170  -1.322          1.345
     4       3       7        0.000   2.170  -1.322          1.345


 ATTRACTOR CP TYPE              :  (3,-3)
 COORD(AU)  (X  Y  Z)           :  0.0000E+00 -2.1699E+00 -1.3224E+00
 PROPERTIES (RHO,GRHO,LAP)      :  1.9124E+02  2.8168E-11 -9.6252E+05
 TRAJECTORY LENGTH(ANG)         :  8.8095E-01
 INTEGRATION STEPS              :      49

 CLUSTER OF ATOMS AROUND THE TERMINUS OF THE PATH 
 NEW  OLD   AT. NU.         COORD.(AU)             DISTANCE (ANG)
     1       4       7        0.000  -2.170  -1.322          0.000
     2       8       1        0.000  -2.143  -3.222          1.005
     3       6       1        0.000  -3.830  -0.383          1.009
     4       1       6        0.000   0.000   0.000          1.345


 BPL (ANG) ; RAB ; (BPL/RAB)    :  1.3449E+00  1.3447E+00  1.0002E+00

 CP N.      8
 *********

 CP TYPE                        :  (3,-1)
 COORD(AU)  (X  Y  Z)           :  0.0000E+00 -3.4064E+00 -6.2641E-01
 PROPERTIES (RHO,GRHO,LAP)      :  3.4628E-01  5.5289E-16 -1.7998E+00
 KINETIC ENERGY DENSITIES (G,K) :  5.1762E-02  5.0171E-01
 VIRIAL DENSITY                 : -5.5347E-01
 ELF(PAA)                       :  9.8898E-01

 SPECTRAL DECOMP. OF THE HESSIAN OF RHO

 EIGENVALUES (L1 L2 L3)         : -1.4018E+00 -1.3153E+00  9.1733E-01
 EIGENVECTORS                   :  0.0000E+00  1.0000E+00  0.0000E+00
                                   4.9469E-01  0.0000E+00  8.6907E-01
                                   8.6907E-01  0.0000E+00 -4.9469E-01

 ELLIPTICITY                    :  6.5707E-02

 CLUSTER OF ATOMS AROUND THE CP 
 NEW  OLD   AT. NU.         COORD.(AU)             DISTANCE (ANG)
     1       6       1        0.000  -3.830  -0.383          0.258
     2       4       7        0.000  -2.170  -1.322          0.751
     3       8       1        0.000  -2.143  -3.222          1.528
     4       1       6        0.000   0.000   0.000          1.833
     5       2       8        0.000   0.000   2.384          2.406
     6       3       7        0.000   2.170  -1.322          2.974
     7       7       1        0.000   2.143  -3.222          3.242
     8       5       1        0.000   3.830  -0.383          3.831

 ******************************
 SEARCH OF BOND PATH ATTRACTORS
 ******************************

 ATTRACTOR CP TYPE              :  (3,-3)
 COORD(AU)  (X  Y  Z)           :  0.0000E+00 -2.1699E+00 -1.3224E+00
 PROPERTIES (RHO,GRHO,LAP)      :  1.9124E+02  2.8168E-11 -9.6252E+05
 TRAJECTORY LENGTH(ANG)         :  7.5087E-01
 INTEGRATION STEPS              :      47

 CLUSTER OF ATOMS AROUND THE TERMINUS OF THE PATH 
 NEW  OLD   AT. NU.         COORD.(AU)             DISTANCE (ANG)
     1       4       7        0.000  -2.170  -1.322          0.000
     2       8       1        0.000  -2.143  -3.222          1.005
     3       6       1        0.000  -3.830  -0.383          1.009
     4       1       6        0.000   0.000   0.000          1.345


 ATTRACTOR CP TYPE              :  (3,-3)
 COORD(AU)  (X  Y  Z)           :  0.0000E+00 -3.6894E+00 -4.6486E-01
 PROPERTIES (RHO,GRHO,LAP)      :  3.6819E-01  1.3170E-14 -6.4947E+00
 TRAJECTORY LENGTH(ANG)         :  1.7247E-01
 INTEGRATION STEPS              :      18

 CLUSTER OF ATOMS AROUND THE TERMINUS OF THE PATH 
 NEW  OLD   AT. NU.         COORD.(AU)             DISTANCE (ANG)
     1       6       1        0.000  -3.830  -0.383          0.086
     2       4       7        0.000  -2.170  -1.322          0.923
     3       8       1        0.000  -2.143  -3.222          1.673
     4       1       6        0.000   0.000   0.000          1.968


 BPL (ANG) ; RAB ; (BPL/RAB)    :  9.2334E-01  1.0092E+00  9.1496E-01

 CP N.      9
 *********

 CP TYPE                        :  (3,-1)
 COORD(AU)  (X  Y  Z)           :  0.0000E+00 -2.1486E+00 -2.7176E+00
 PROPERTIES (RHO,GRHO,LAP)      :  3.5200E-01  7.7953E-16 -1.7345E+00
 KINETIC ENERGY DENSITIES (G,K) :  5.9138E-02  4.9276E-01
 VIRIAL DENSITY                 : -5.5190E-01
 ELF(PAA)                       :  9.8641E-01

 SPECTRAL DECOMP. OF THE HESSIAN OF RHO

 EIGENVALUES (L1 L2 L3)         : -1.3855E+00 -1.2943E+00  9.4530E-01
 EIGENVECTORS                   :  0.0000E+00 -1.0000E+00  0.0000E+00
                                  -9.9992E-01  0.0000E+00 -1.2749E-02
                                  -1.2749E-02  0.0000E+00  9.9992E-01

 ELLIPTICITY                    :  7.0437E-02

 CLUSTER OF ATOMS AROUND THE CP 
 NEW  OLD   AT. NU.         COORD.(AU)             DISTANCE (ANG)
     1       8       1        0.000  -2.143  -3.222          0.267
     2       4       7        0.000  -2.170  -1.322          0.738
     3       6       1        0.000  -3.830  -0.383          1.522
     4       1       6        0.000   0.000   0.000          1.833
     5       7       1        0.000   2.143  -3.222          2.287
     6       3       7        0.000   2.170  -1.322          2.402
     7       2       8        0.000   0.000   2.384          2.929
     8       5       1        0.000   3.830  -0.383          3.396

 ******************************
 SEARCH OF BOND PATH ATTRACTORS
 ******************************

 ATTRACTOR CP TYPE              :  (3,-3)
 COORD(AU)  (X  Y  Z)           :  0.0000E+00 -2.1699E+00 -1.3224E+00
 PROPERTIES (RHO,GRHO,LAP)      :  1.9124E+02  2.8168E-11 -9.6252E+05
 TRAJECTORY LENGTH(ANG)         :  7.3839E-01
 INTEGRATION STEPS              :      48

 CLUSTER OF ATOMS AROUND THE TERMINUS OF THE PATH 
 NEW  OLD   AT. NU.         COORD.(AU)             DISTANCE (ANG)
     1       4       7        0.000  -2.170  -1.322          0.000
     2       8       1        0.000  -2.143  -3.222          1.005
     3       6       1        0.000  -3.830  -0.383          1.009
     4       1       6        0.000   0.000   0.000          1.345


 ATTRACTOR CP TYPE              :  (3,-3)
 COORD(AU)  (X  Y  Z)           :  0.0000E+00 -2.1444E+00 -3.0678E+00
 PROPERTIES (RHO,GRHO,LAP)      :  3.7918E-01  2.1169E-12 -6.8397E+00
 TRAJECTORY LENGTH(ANG)         :  1.8532E-01
 INTEGRATION STEPS              :      18

 CLUSTER OF ATOMS AROUND THE TERMINUS OF THE PATH 
 NEW  OLD   AT. NU.         COORD.(AU)             DISTANCE (ANG)
     1       8       1        0.000  -2.143  -3.222          0.082
     2       4       7        0.000  -2.170  -1.322          0.924
     3       6       1        0.000  -3.830  -0.383          1.677
     4       1       6        0.000   0.000   0.000          1.981


 BPL (ANG) ; RAB ; (BPL/RAB)    :  9.2371E-01  1.0053E+00  9.1885E-01


 ********************
 SEARCH OF (3,+1) CPS
 ********************


 ********************
 SEARCH OF (3,+3) CPS
 ********************


 NUMBER OF ATOM PAIRS INVESTIGATED:    16
 NUMBER OF UNIQUE CRI. POINT FOUND:     9


        ********** C R I T I C A L  P O I N T S  F O U N D **********


 CP N.  X(ANG)  Y(ANG)  Z(ANG)  TYPE      RHO    LAPL    L1(V1)  L2(V2)  L3(V3) ELLIP

 ************************************************************************************
    1)  0.000   0.000   1.261  (3,-3)  291.736-999.999-999.999-999.999-999.999
                                                         0.000   1.000   0.000
                                                         0.000   0.000   1.000
                                                         1.000   0.000   0.000


    2)  0.000   0.000  -0.000  (3,-3)  117.926-999.999-999.999-999.999-999.999
                                                         1.000   0.000   0.000
                                                         0.000   1.000   0.000
                                                         0.000   0.000   1.000


    3)  0.000  -1.148  -0.700  (3,-3)  191.242-999.999-999.999-999.999-999.999
                                                         0.000   0.000   1.000
                                                        -0.418   0.909   0.000
                                                         0.909   0.418   0.000


    4)  0.000  -1.952  -0.246  (3,-3)    0.368  -6.495  -2.551  -2.508  -1.436
                                                         0.000   1.000   0.000
                                                         0.496   0.000   0.868
                                                         0.868   0.000  -0.496


    5)  0.000  -1.135  -1.623  (3,-3)    0.379  -6.840  -2.657  -2.615  -1.568
                                                         0.000  -1.000   0.000
                                                        -1.000   0.000  -0.011
                                                        -0.011   0.000   1.000


    6)  0.000   0.000   0.440  (3,-1)    0.384  -0.664  -1.009  -0.896   1.240  0.126

       ( C     1    0.440 ANG)                             0.000   1.000   0.000
       ( O     2    0.822 ANG)                             1.000   0.000   0.000
                                                         0.000   0.000   1.000


    7)  0.000  -0.391  -0.250  (3,-1)    0.334  -0.826  -0.859  -0.783   0.817  0.097

       ( C     1    0.464 ANG)                             0.000   1.000   0.000
       ( N     4    0.881 ANG)                            -0.520   0.000   0.854
                                                         0.854   0.000   0.520


    8)  0.000  -1.803  -0.331  (3,-1)    0.346  -1.800  -1.402  -1.315   0.917  0.066

       ( H     6    0.172 ANG)                             0.000   1.000   0.000
       ( N     4    0.751 ANG)                             0.495   0.000   0.869
                                                         0.869   0.000  -0.495


    9)  0.000  -1.137  -1.438  (3,-1)    0.352  -1.734  -1.385  -1.294   0.945  0.070

       ( H     8    0.185 ANG)                             0.000  -1.000   0.000
       ( N     4    0.738 ANG)                            -1.000   0.000  -0.013
                                                        -0.013   0.000   1.000


 ************************************************************************************
 TTTTTTTTTTTTTTTTTTTTTTTTTTTTTT TRHO        TELAPSE        3.02 TCPU        3.01
 TTTTTTTTTTTTTTTTTTTTTTTTTTTTTT END         TELAPSE        3.02 TCPU        3.01
 EEEEEEEEEE TERMINATION  DATE 24 02 2025 TIME 17:26:34.2
